n -t * -s 0  -x 15 -y 15 -Z 0 -z 20  -v circle -c black
n -t * -s 1  -x 75 -y 15 -Z 0 -z 20  -v circle -c black
n -t * -s 2  -x 120 -y 15 -Z 0 -z 20  -v circle -c black
n -t * -s 3  -x 15 -y 200 -Z 0 -z 20  -v circle -c black
n -t * -s 4  -x 130 -y 200 -Z 0 -z 20  -v circle -c black
n -t * -s 5  -x 87 -y 300 -Z 0 -z 20  -v circle -c black
V -t * -v 1.0a5 -a 0
W -t * -x 360 -y 300
A -t * -n 1 -p 0 -o 0x7fffffff -c 30 -a 1
A -t * -h 1 -m 1073741823 -s 0
c -t * -i 1 -n Red
c -t * -i 2 -n Blue
+ -t 5.000000000 -s 0 -d -1 -p tcp -e 40 -c 2 -a 0 -i 0 -k AGT 
- -t 5.000000000 -s 0 -d -1 -p tcp -e 40 -c 2 -a 0 -i 0 -k AGT
h -t 5.000000000 -s 0 -d -1 -p tcp -e 40 -c 2 -a 0 -i 0 -k AGT
+ -t 5.000000000 -s 0 -d -1 -p AODV -e 48 -c 2 -a 0 -i 0 -k RTR 
- -t 5.000000000 -s 0 -d -1 -p AODV -e 48 -c 2 -a 0 -i 0 -k RTR
h -t 5.000000000 -s 0 -d -1 -p AODV -e 48 -c 2 -a 0 -i 0 -k RTR
r -t 5.001508200 -s 1 -d -1 -p AODV -e 48 -c 2 -a 0 -i 0 -k RTR
r -t 5.001508350 -s 2 -d -1 -p AODV -e 48 -c 2 -a 0 -i 0 -k RTR
r -t 5.001508617 -s 3 -d -1 -p AODV -e 48 -c 2 -a 0 -i 0 -k RTR
r -t 5.001508726 -s 4 -d -1 -p AODV -e 48 -c 2 -a 0 -i 0 -k RTR
+ -t 5.004638234 -s 3 -d -1 -p AODV -e 48 -c 2 -a 0 -i 0 -k RTR 
- -t 5.004638234 -s 3 -d -1 -p AODV -e 48 -c 2 -a 0 -i 0 -k RTR
h -t 5.004638234 -s 3 -d -1 -p AODV -e 48 -c 2 -a 0 -i 0 -k RTR
r -t 5.005826618 -s 4 -d -1 -p AODV -e 48 -c 2 -a 0 -i 0 -k RTR
r -t 5.005826645 -s 5 -d -1 -p AODV -e 48 -c 2 -a 0 -i 0 -k RTR
+ -t 5.005826645 -s 5 -d 3 -p AODV -e 44 -c 2 -a 0 -i 0 -k RTR 
- -t 5.005826645 -s 5 -d 3 -p AODV -e 44 -c 2 -a 0 -i 0 -k RTR
h -t 5.005826645 -s 5 -d 3 -p AODV -e 44 -c 2 -a 0 -i 0 -k RTR
r -t 5.005826851 -s 0 -d -1 -p AODV -e 48 -c 2 -a 0 -i 0 -k RTR
r -t 5.005826883 -s 1 -d -1 -p AODV -e 48 -c 2 -a 0 -i 0 -k RTR
r -t 5.005826943 -s 2 -d -1 -p AODV -e 48 -c 2 -a 0 -i 0 -k RTR
+ -t 5.005919934 -s 1 -d -1 -p AODV -e 48 -c 2 -a 0 -i 0 -k RTR 
- -t 5.005919934 -s 1 -d -1 -p AODV -e 48 -c 2 -a 0 -i 0 -k RTR
h -t 5.005919934 -s 1 -d -1 -p AODV -e 48 -c 2 -a 0 -i 0 -k RTR
+ -t 5.009499905 -s 2 -d -1 -p AODV -e 48 -c 2 -a 0 -i 0 -k RTR 
- -t 5.009499905 -s 2 -d -1 -p AODV -e 48 -c 2 -a 0 -i 0 -k RTR
h -t 5.009499905 -s 2 -d -1 -p AODV -e 48 -c 2 -a 0 -i 0 -k RTR
+ -t 5.009673487 -s 4 -d -1 -p AODV -e 48 -c 2 -a 0 -i 0 -k RTR 
- -t 5.009673487 -s 4 -d -1 -p AODV -e 48 -c 2 -a 0 -i 0 -k RTR
h -t 5.009673487 -s 4 -d -1 -p AODV -e 48 -c 2 -a 0 -i 0 -k RTR
r -t 5.010027389 -s 2 -d -1 -p AODV -e 48 -c 2 -a 0 -i 0 -k RTR
r -t 5.010027439 -s 0 -d -1 -p AODV -e 48 -c 2 -a 0 -i 0 -k RTR
r -t 5.010027882 -s 4 -d -1 -p AODV -e 48 -c 2 -a 0 -i 0 -k RTR
r -t 5.010027887 -s 3 -d -1 -p AODV -e 48 -c 2 -a 0 -i 0 -k RTR
r -t 5.011166245 -s 5 -d -1 -p AODV -e 48 -c 2 -a 0 -i 0 -k RTR
r -t 5.011166266 -s 3 -d -1 -p AODV -e 48 -c 2 -a 0 -i 0 -k RTR
r -t 5.011166500 -s 2 -d -1 -p AODV -e 48 -c 2 -a 0 -i 0 -k RTR
r -t 5.011166526 -s 1 -d -1 -p AODV -e 48 -c 2 -a 0 -i 0 -k RTR
r -t 5.011166608 -s 0 -d -1 -p AODV -e 48 -c 2 -a 0 -i 0 -k RTR
+ -t 5.012789477 -s 3 -d 0 -p AODV -e 44 -c 2 -a 0 -i 0 -k RTR 
- -t 5.012789477 -s 3 -d 0 -p AODV -e 44 -c 2 -a 0 -i 0 -k RTR
h -t 5.012789477 -s 3 -d 0 -p AODV -e 44 -c 2 -a 0 -i 0 -k RTR
r -t 5.014092173 -s 1 -d -1 -p AODV -e 48 -c 2 -a 0 -i 0 -k RTR
r -t 5.014092373 -s 0 -d -1 -p AODV -e 48 -c 2 -a 0 -i 0 -k RTR
r -t 5.014092641 -s 4 -d -1 -p AODV -e 48 -c 2 -a 0 -i 0 -k RTR
r -t 5.014092732 -s 3 -d -1 -p AODV -e 48 -c 2 -a 0 -i 0 -k RTR
+ -t 5.018590049 -s 0 -d 3 -p tcp -e 40 -c 2 -a 0 -i 0 -k RTR 
- -t 5.018590049 -s 0 -d 3 -p tcp -e 40 -c 2 -a 0 -i 0 -k RTR
h -t 5.018590049 -s 0 -d 3 -p tcp -e 40 -c 2 -a 0 -i 0 -k RTR
+ -t 5.020455899 -s 3 -d 5 -p tcp -e 40 -c 2 -a 0 -i 0 -k RTR 
- -t 5.020455899 -s 3 -d 5 -p tcp -e 40 -c 2 -a 0 -i 0 -k RTR
h -t 5.020455899 -s 3 -d 5 -p tcp -e 40 -c 2 -a 0 -i 0 -k RTR
r -t 5.022681131 -s 5 -d 5 -p tcp -e 40 -c 2 -a 0 -i 0 -k AGT
+ -t 5.022681131 -s 5 -d -1 -p ack -e 40 -c 2 -a 0 -i 1 -k AGT 
- -t 5.022681131 -s 5 -d -1 -p ack -e 40 -c 2 -a 0 -i 1 -k AGT
h -t 5.022681131 -s 5 -d -1 -p ack -e 40 -c 2 -a 0 -i 1 -k AGT
+ -t 5.022681131 -s 5 -d 3 -p ack -e 40 -c 2 -a 0 -i 1 -k RTR 
- -t 5.022681131 -s 5 -d 3 -p ack -e 40 -c 2 -a 0 -i 1 -k RTR
h -t 5.022681131 -s 5 -d 3 -p ack -e 40 -c 2 -a 0 -i 1 -k RTR
+ -t 5.025086363 -s 3 -d 0 -p ack -e 40 -c 2 -a 0 -i 1 -k RTR 
- -t 5.025086363 -s 3 -d 0 -p ack -e 40 -c 2 -a 0 -i 1 -k RTR
h -t 5.025086363 -s 3 -d 0 -p ack -e 40 -c 2 -a 0 -i 1 -k RTR
r -t 5.027452213 -s 0 -d 0 -p ack -e 40 -c 2 -a 0 -i 1 -k AGT
+ -t 5.027452213 -s 0 -d -1 -p tcp -e 1040 -c 2 -a 0 -i 2 -k AGT 
- -t 5.027452213 -s 0 -d -1 -p tcp -e 1040 -c 2 -a 0 -i 2 -k AGT
h -t 5.027452213 -s 0 -d -1 -p tcp -e 1040 -c 2 -a 0 -i 2 -k AGT
+ -t 5.027452213 -s 0 -d -1 -p tcp -e 1040 -c 2 -a 0 -i 3 -k AGT 
- -t 5.027452213 -s 0 -d -1 -p tcp -e 1040 -c 2 -a 0 -i 3 -k AGT
h -t 5.027452213 -s 0 -d -1 -p tcp -e 1040 -c 2 -a 0 -i 3 -k AGT
+ -t 5.027452213 -s 0 -d 3 -p tcp -e 1040 -c 2 -a 0 -i 2 -k RTR 
- -t 5.027452213 -s 0 -d 3 -p tcp -e 1040 -c 2 -a 0 -i 2 -k RTR
h -t 5.027452213 -s 0 -d 3 -p tcp -e 1040 -c 2 -a 0 -i 2 -k RTR
+ -t 5.027452213 -s 0 -d 3 -p tcp -e 1040 -c 2 -a 0 -i 3 -k RTR 
- -t 5.027452213 -s 0 -d 3 -p tcp -e 1040 -c 2 -a 0 -i 3 -k RTR
h -t 5.027452213 -s 0 -d 3 -p tcp -e 1040 -c 2 -a 0 -i 3 -k RTR
+ -t 5.037318063 -s 3 -d 5 -p tcp -e 1040 -c 2 -a 0 -i 2 -k RTR 
- -t 5.037318063 -s 3 -d 5 -p tcp -e 1040 -c 2 -a 0 -i 2 -k RTR
h -t 5.037318063 -s 3 -d 5 -p tcp -e 1040 -c 2 -a 0 -i 2 -k RTR
r -t 5.047403295 -s 5 -d 5 -p tcp -e 1040 -c 2 -a 0 -i 2 -k AGT
+ -t 5.047403295 -s 5 -d -1 -p ack -e 40 -c 2 -a 0 -i 4 -k AGT 
- -t 5.047403295 -s 5 -d -1 -p ack -e 40 -c 2 -a 0 -i 4 -k AGT
h -t 5.047403295 -s 5 -d -1 -p ack -e 40 -c 2 -a 0 -i 4 -k AGT
+ -t 5.047403295 -s 5 -d 3 -p ack -e 40 -c 2 -a 0 -i 4 -k RTR 
- -t 5.047403295 -s 5 -d 3 -p ack -e 40 -c 2 -a 0 -i 4 -k RTR
h -t 5.047403295 -s 5 -d 3 -p ack -e 40 -c 2 -a 0 -i 4 -k RTR
+ -t 5.049368528 -s 3 -d 0 -p ack -e 40 -c 2 -a 0 -i 4 -k RTR 
- -t 5.049368528 -s 3 -d 0 -p ack -e 40 -c 2 -a 0 -i 4 -k RTR
h -t 5.049368528 -s 3 -d 0 -p ack -e 40 -c 2 -a 0 -i 4 -k RTR
+ -t 5.059364947 -s 3 -d 5 -p tcp -e 1040 -c 2 -a 0 -i 3 -k RTR 
- -t 5.059364947 -s 3 -d 5 -p tcp -e 1040 -c 2 -a 0 -i 3 -k RTR
h -t 5.059364947 -s 3 -d 5 -p tcp -e 1040 -c 2 -a 0 -i 3 -k RTR
r -t 5.061310797 -s 0 -d 0 -p ack -e 40 -c 2 -a 0 -i 4 -k AGT
+ -t 5.061310797 -s 0 -d -1 -p tcp -e 1040 -c 2 -a 0 -i 5 -k AGT 
- -t 5.061310797 -s 0 -d -1 -p tcp -e 1040 -c 2 -a 0 -i 5 -k AGT
h -t 5.061310797 -s 0 -d -1 -p tcp -e 1040 -c 2 -a 0 -i 5 -k AGT
+ -t 5.061310797 -s 0 -d -1 -p tcp -e 1040 -c 2 -a 0 -i 6 -k AGT 
- -t 5.061310797 -s 0 -d -1 -p tcp -e 1040 -c 2 -a 0 -i 6 -k AGT
h -t 5.061310797 -s 0 -d -1 -p tcp -e 1040 -c 2 -a 0 -i 6 -k AGT
+ -t 5.061310797 -s 0 -d 3 -p tcp -e 1040 -c 2 -a 0 -i 5 -k RTR 
- -t 5.061310797 -s 0 -d 3 -p tcp -e 1040 -c 2 -a 0 -i 5 -k RTR
h -t 5.061310797 -s 0 -d 3 -p tcp -e 1040 -c 2 -a 0 -i 5 -k RTR
+ -t 5.061310797 -s 0 -d 3 -p tcp -e 1040 -c 2 -a 0 -i 6 -k RTR 
- -t 5.061310797 -s 0 -d 3 -p tcp -e 1040 -c 2 -a 0 -i 6 -k RTR
h -t 5.061310797 -s 0 -d 3 -p tcp -e 1040 -c 2 -a 0 -i 6 -k RTR
r -t 5.071356646 -s 5 -d 5 -p tcp -e 1040 -c 2 -a 0 -i 3 -k AGT
+ -t 5.071356646 -s 5 -d -1 -p ack -e 40 -c 2 -a 0 -i 7 -k AGT 
- -t 5.071356646 -s 5 -d -1 -p ack -e 40 -c 2 -a 0 -i 7 -k AGT
h -t 5.071356646 -s 5 -d -1 -p ack -e 40 -c 2 -a 0 -i 7 -k AGT
+ -t 5.071356646 -s 5 -d 3 -p ack -e 40 -c 2 -a 0 -i 7 -k RTR 
- -t 5.071356646 -s 5 -d 3 -p ack -e 40 -c 2 -a 0 -i 7 -k RTR
h -t 5.071356646 -s 5 -d 3 -p ack -e 40 -c 2 -a 0 -i 7 -k RTR
+ -t 5.073381878 -s 3 -d 0 -p ack -e 40 -c 2 -a 0 -i 7 -k RTR 
- -t 5.073381878 -s 3 -d 0 -p ack -e 40 -c 2 -a 0 -i 7 -k RTR
h -t 5.073381878 -s 3 -d 0 -p ack -e 40 -c 2 -a 0 -i 7 -k RTR
+ -t 5.083558297 -s 3 -d 5 -p tcp -e 1040 -c 2 -a 0 -i 5 -k RTR 
- -t 5.083558297 -s 3 -d 5 -p tcp -e 1040 -c 2 -a 0 -i 5 -k RTR
h -t 5.083558297 -s 3 -d 5 -p tcp -e 1040 -c 2 -a 0 -i 5 -k RTR
r -t 5.085424147 -s 0 -d 0 -p ack -e 40 -c 2 -a 0 -i 7 -k AGT
+ -t 5.085424147 -s 0 -d -1 -p tcp -e 1040 -c 2 -a 0 -i 8 -k AGT 
- -t 5.085424147 -s 0 -d -1 -p tcp -e 1040 -c 2 -a 0 -i 8 -k AGT
h -t 5.085424147 -s 0 -d -1 -p tcp -e 1040 -c 2 -a 0 -i 8 -k AGT
+ -t 5.085424147 -s 0 -d -1 -p tcp -e 1040 -c 2 -a 0 -i 9 -k AGT 
- -t 5.085424147 -s 0 -d -1 -p tcp -e 1040 -c 2 -a 0 -i 9 -k AGT
h -t 5.085424147 -s 0 -d -1 -p tcp -e 1040 -c 2 -a 0 -i 9 -k AGT
+ -t 5.085424147 -s 0 -d 3 -p tcp -e 1040 -c 2 -a 0 -i 8 -k RTR 
- -t 5.085424147 -s 0 -d 3 -p tcp -e 1040 -c 2 -a 0 -i 8 -k RTR
h -t 5.085424147 -s 0 -d 3 -p tcp -e 1040 -c 2 -a 0 -i 8 -k RTR
+ -t 5.085424147 -s 0 -d 3 -p tcp -e 1040 -c 2 -a 0 -i 9 -k RTR 
- -t 5.085424147 -s 0 -d 3 -p tcp -e 1040 -c 2 -a 0 -i 9 -k RTR
h -t 5.085424147 -s 0 -d 3 -p tcp -e 1040 -c 2 -a 0 -i 9 -k RTR
+ -t 5.095329997 -s 3 -d 5 -p tcp -e 1040 -c 2 -a 0 -i 6 -k RTR 
- -t 5.095329997 -s 3 -d 5 -p tcp -e 1040 -c 2 -a 0 -i 6 -k RTR
h -t 5.095329997 -s 3 -d 5 -p tcp -e 1040 -c 2 -a 0 -i 6 -k RTR
r -t 5.105415229 -s 5 -d 5 -p tcp -e 1040 -c 2 -a 0 -i 5 -k AGT
+ -t 5.105415229 -s 5 -d -1 -p ack -e 40 -c 2 -a 0 -i 10 -k AGT 
- -t 5.105415229 -s 5 -d -1 -p ack -e 40 -c 2 -a 0 -i 10 -k AGT
h -t 5.105415229 -s 5 -d -1 -p ack -e 40 -c 2 -a 0 -i 10 -k AGT
+ -t 5.105415229 -s 5 -d 3 -p ack -e 40 -c 2 -a 0 -i 10 -k RTR 
- -t 5.105415229 -s 5 -d 3 -p ack -e 40 -c 2 -a 0 -i 10 -k RTR
h -t 5.105415229 -s 5 -d 3 -p ack -e 40 -c 2 -a 0 -i 10 -k RTR
r -t 5.115420872 -s 5 -d 5 -p tcp -e 1040 -c 2 -a 0 -i 6 -k AGT
+ -t 5.115420872 -s 5 -d -1 -p ack -e 40 -c 2 -a 0 -i 11 -k AGT 
- -t 5.115420872 -s 5 -d -1 -p ack -e 40 -c 2 -a 0 -i 11 -k AGT
h -t 5.115420872 -s 5 -d -1 -p ack -e 40 -c 2 -a 0 -i 11 -k AGT
+ -t 5.115420872 -s 5 -d 3 -p ack -e 40 -c 2 -a 0 -i 11 -k RTR 
- -t 5.115420872 -s 5 -d 3 -p ack -e 40 -c 2 -a 0 -i 11 -k RTR
h -t 5.115420872 -s 5 -d 3 -p ack -e 40 -c 2 -a 0 -i 11 -k RTR
+ -t 5.117346104 -s 3 -d 0 -p ack -e 40 -c 2 -a 0 -i 10 -k RTR 
- -t 5.117346104 -s 3 -d 0 -p ack -e 40 -c 2 -a 0 -i 10 -k RTR
h -t 5.117346104 -s 3 -d 0 -p ack -e 40 -c 2 -a 0 -i 10 -k RTR
r -t 5.119371954 -s 0 -d 0 -p ack -e 40 -c 2 -a 0 -i 10 -k AGT
+ -t 5.119371954 -s 0 -d -1 -p tcp -e 1040 -c 2 -a 0 -i 12 -k AGT 
- -t 5.119371954 -s 0 -d -1 -p tcp -e 1040 -c 2 -a 0 -i 12 -k AGT
h -t 5.119371954 -s 0 -d -1 -p tcp -e 1040 -c 2 -a 0 -i 12 -k AGT
+ -t 5.119371954 -s 0 -d -1 -p tcp -e 1040 -c 2 -a 0 -i 13 -k AGT 
- -t 5.119371954 -s 0 -d -1 -p tcp -e 1040 -c 2 -a 0 -i 13 -k AGT
h -t 5.119371954 -s 0 -d -1 -p tcp -e 1040 -c 2 -a 0 -i 13 -k AGT
+ -t 5.119371954 -s 0 -d 3 -p tcp -e 1040 -c 2 -a 0 -i 12 -k RTR 
- -t 5.119371954 -s 0 -d 3 -p tcp -e 1040 -c 2 -a 0 -i 12 -k RTR
h -t 5.119371954 -s 0 -d 3 -p tcp -e 1040 -c 2 -a 0 -i 12 -k RTR
+ -t 5.119371954 -s 0 -d 3 -p tcp -e 1040 -c 2 -a 0 -i 13 -k RTR 
- -t 5.119371954 -s 0 -d 3 -p tcp -e 1040 -c 2 -a 0 -i 13 -k RTR
h -t 5.119371954 -s 0 -d 3 -p tcp -e 1040 -c 2 -a 0 -i 13 -k RTR
+ -t 5.129317804 -s 3 -d 5 -p tcp -e 1040 -c 2 -a 0 -i 8 -k RTR 
- -t 5.129317804 -s 3 -d 5 -p tcp -e 1040 -c 2 -a 0 -i 8 -k RTR
h -t 5.129317804 -s 3 -d 5 -p tcp -e 1040 -c 2 -a 0 -i 8 -k RTR
r -t 5.139363037 -s 5 -d 5 -p tcp -e 1040 -c 2 -a 0 -i 8 -k AGT
+ -t 5.139363037 -s 5 -d -1 -p ack -e 40 -c 2 -a 0 -i 14 -k AGT 
- -t 5.139363037 -s 5 -d -1 -p ack -e 40 -c 2 -a 0 -i 14 -k AGT
h -t 5.139363037 -s 5 -d -1 -p ack -e 40 -c 2 -a 0 -i 14 -k AGT
+ -t 5.139363037 -s 5 -d 3 -p ack -e 40 -c 2 -a 0 -i 14 -k RTR 
- -t 5.139363037 -s 5 -d 3 -p ack -e 40 -c 2 -a 0 -i 14 -k RTR
h -t 5.139363037 -s 5 -d 3 -p ack -e 40 -c 2 -a 0 -i 14 -k RTR
+ -t 5.141308269 -s 3 -d 0 -p ack -e 40 -c 2 -a 0 -i 11 -k RTR 
- -t 5.141308269 -s 3 -d 0 -p ack -e 40 -c 2 -a 0 -i 11 -k RTR
h -t 5.141308269 -s 3 -d 0 -p ack -e 40 -c 2 -a 0 -i 11 -k RTR
r -t 5.143194119 -s 0 -d 0 -p ack -e 40 -c 2 -a 0 -i 11 -k AGT
+ -t 5.143194119 -s 0 -d -1 -p tcp -e 1040 -c 2 -a 0 -i 15 -k AGT 
- -t 5.143194119 -s 0 -d -1 -p tcp -e 1040 -c 2 -a 0 -i 15 -k AGT
h -t 5.143194119 -s 0 -d -1 -p tcp -e 1040 -c 2 -a 0 -i 15 -k AGT
+ -t 5.143194119 -s 0 -d -1 -p tcp -e 1040 -c 2 -a 0 -i 16 -k AGT 
- -t 5.143194119 -s 0 -d -1 -p tcp -e 1040 -c 2 -a 0 -i 16 -k AGT
h -t 5.143194119 -s 0 -d -1 -p tcp -e 1040 -c 2 -a 0 -i 16 -k AGT
+ -t 5.143194119 -s 0 -d 3 -p tcp -e 1040 -c 2 -a 0 -i 15 -k RTR 
- -t 5.143194119 -s 0 -d 3 -p tcp -e 1040 -c 2 -a 0 -i 15 -k RTR
h -t 5.143194119 -s 0 -d 3 -p tcp -e 1040 -c 2 -a 0 -i 15 -k RTR
+ -t 5.143194119 -s 0 -d 3 -p tcp -e 1040 -c 2 -a 0 -i 16 -k RTR 
- -t 5.143194119 -s 0 -d 3 -p tcp -e 1040 -c 2 -a 0 -i 16 -k RTR
h -t 5.143194119 -s 0 -d 3 -p tcp -e 1040 -c 2 -a 0 -i 16 -k RTR
+ -t 5.153119969 -s 3 -d 5 -p tcp -e 1040 -c 2 -a 0 -i 9 -k RTR 
- -t 5.153119969 -s 3 -d 5 -p tcp -e 1040 -c 2 -a 0 -i 9 -k RTR
h -t 5.153119969 -s 3 -d 5 -p tcp -e 1040 -c 2 -a 0 -i 9 -k RTR
+ -t 5.162946436 -s 3 -d 5 -p tcp -e 1040 -c 2 -a 0 -i 12 -k RTR 
- -t 5.162946436 -s 3 -d 5 -p tcp -e 1040 -c 2 -a 0 -i 12 -k RTR
h -t 5.162946436 -s 3 -d 5 -p tcp -e 1040 -c 2 -a 0 -i 12 -k RTR
+ -t 5.164982031 -s 3 -d 0 -p ack -e 40 -c 2 -a 0 -i 14 -k RTR 
- -t 5.164982031 -s 3 -d 0 -p ack -e 40 -c 2 -a 0 -i 14 -k RTR
h -t 5.164982031 -s 3 -d 0 -p ack -e 40 -c 2 -a 0 -i 14 -k RTR
+ -t 5.174898450 -s 3 -d 5 -p tcp -e 1040 -c 2 -a 0 -i 13 -k RTR 
- -t 5.174898450 -s 3 -d 5 -p tcp -e 1040 -c 2 -a 0 -i 13 -k RTR
h -t 5.174898450 -s 3 -d 5 -p tcp -e 1040 -c 2 -a 0 -i 13 -k RTR
r -t 5.184743682 -s 5 -d 5 -p tcp -e 1040 -c 2 -a 0 -i 9 -k AGT
+ -t 5.184743682 -s 5 -d -1 -p ack -e 40 -c 2 -a 0 -i 17 -k AGT 
- -t 5.184743682 -s 5 -d -1 -p ack -e 40 -c 2 -a 0 -i 17 -k AGT
h -t 5.184743682 -s 5 -d -1 -p ack -e 40 -c 2 -a 0 -i 17 -k AGT
+ -t 5.184743682 -s 5 -d 3 -p ack -e 40 -c 2 -a 0 -i 17 -k RTR 
- -t 5.184743682 -s 5 -d 3 -p ack -e 40 -c 2 -a 0 -i 17 -k RTR
h -t 5.184743682 -s 5 -d 3 -p ack -e 40 -c 2 -a 0 -i 17 -k RTR
r -t 5.194589325 -s 5 -d 5 -p tcp -e 1040 -c 2 -a 0 -i 12 -k AGT
+ -t 5.194589325 -s 5 -d -1 -p ack -e 40 -c 2 -a 0 -i 18 -k AGT 
- -t 5.194589325 -s 5 -d -1 -p ack -e 40 -c 2 -a 0 -i 18 -k AGT
h -t 5.194589325 -s 5 -d -1 -p ack -e 40 -c 2 -a 0 -i 18 -k AGT
+ -t 5.194589325 -s 5 -d 3 -p ack -e 40 -c 2 -a 0 -i 18 -k RTR 
- -t 5.194589325 -s 5 -d 3 -p ack -e 40 -c 2 -a 0 -i 18 -k RTR
h -t 5.194589325 -s 5 -d 3 -p ack -e 40 -c 2 -a 0 -i 18 -k RTR
+ -t 5.196614558 -s 3 -d 0 -p ack -e 40 -c 2 -a 0 -i 17 -k RTR 
- -t 5.196614558 -s 3 -d 0 -p ack -e 40 -c 2 -a 0 -i 17 -k RTR
h -t 5.196614558 -s 3 -d 0 -p ack -e 40 -c 2 -a 0 -i 17 -k RTR
+ -t 5.198680200 -s 3 -d 0 -p ack -e 40 -c 2 -a 0 -i 18 -k RTR 
- -t 5.198680200 -s 3 -d 0 -p ack -e 40 -c 2 -a 0 -i 18 -k RTR
h -t 5.198680200 -s 3 -d 0 -p ack -e 40 -c 2 -a 0 -i 18 -k RTR
r -t 5.200546050 -s 0 -d 0 -p ack -e 40 -c 2 -a 0 -i 14 -k AGT
+ -t 5.200546050 -s 0 -d -1 -p tcp -e 1040 -c 2 -a 0 -i 19 -k AGT 
- -t 5.200546050 -s 0 -d -1 -p tcp -e 1040 -c 2 -a 0 -i 19 -k AGT
h -t 5.200546050 -s 0 -d -1 -p tcp -e 1040 -c 2 -a 0 -i 19 -k AGT
+ -t 5.200546050 -s 0 -d -1 -p tcp -e 1040 -c 2 -a 0 -i 20 -k AGT 
- -t 5.200546050 -s 0 -d -1 -p tcp -e 1040 -c 2 -a 0 -i 20 -k AGT
h -t 5.200546050 -s 0 -d -1 -p tcp -e 1040 -c 2 -a 0 -i 20 -k AGT
+ -t 5.200546050 -s 0 -d 3 -p tcp -e 1040 -c 2 -a 0 -i 19 -k RTR 
- -t 5.200546050 -s 0 -d 3 -p tcp -e 1040 -c 2 -a 0 -i 19 -k RTR
h -t 5.200546050 -s 0 -d 3 -p tcp -e 1040 -c 2 -a 0 -i 19 -k RTR
+ -t 5.200546050 -s 0 -d 3 -p tcp -e 1040 -c 2 -a 0 -i 20 -k RTR 
- -t 5.200546050 -s 0 -d 3 -p tcp -e 1040 -c 2 -a 0 -i 20 -k RTR
h -t 5.200546050 -s 0 -d 3 -p tcp -e 1040 -c 2 -a 0 -i 20 -k RTR
+ -t 5.210451900 -s 3 -d 5 -p tcp -e 1040 -c 2 -a 0 -i 15 -k RTR 
- -t 5.210451900 -s 3 -d 5 -p tcp -e 1040 -c 2 -a 0 -i 15 -k RTR
h -t 5.210451900 -s 3 -d 5 -p tcp -e 1040 -c 2 -a 0 -i 15 -k RTR
+ -t 5.220318367 -s 3 -d 5 -p tcp -e 1040 -c 2 -a 0 -i 16 -k RTR 
- -t 5.220318367 -s 3 -d 5 -p tcp -e 1040 -c 2 -a 0 -i 16 -k RTR
h -t 5.220318367 -s 3 -d 5 -p tcp -e 1040 -c 2 -a 0 -i 16 -k RTR
r -t 5.230323599 -s 5 -d 5 -p tcp -e 1040 -c 2 -a 0 -i 13 -k AGT
+ -t 5.230323599 -s 5 -d -1 -p ack -e 40 -c 2 -a 0 -i 21 -k AGT 
- -t 5.230323599 -s 5 -d -1 -p ack -e 40 -c 2 -a 0 -i 21 -k AGT
h -t 5.230323599 -s 5 -d -1 -p ack -e 40 -c 2 -a 0 -i 21 -k AGT
+ -t 5.230323599 -s 5 -d 3 -p ack -e 40 -c 2 -a 0 -i 21 -k RTR 
- -t 5.230323599 -s 5 -d 3 -p ack -e 40 -c 2 -a 0 -i 21 -k RTR
h -t 5.230323599 -s 5 -d 3 -p ack -e 40 -c 2 -a 0 -i 21 -k RTR
+ -t 5.232268832 -s 3 -d 0 -p ack -e 40 -c 2 -a 0 -i 21 -k RTR 
- -t 5.232268832 -s 3 -d 0 -p ack -e 40 -c 2 -a 0 -i 21 -k RTR
h -t 5.232268832 -s 3 -d 0 -p ack -e 40 -c 2 -a 0 -i 21 -k RTR
r -t 5.234194682 -s 0 -d 0 -p ack -e 40 -c 2 -a 0 -i 17 -k AGT
+ -t 5.234194682 -s 0 -d -1 -p tcp -e 1040 -c 2 -a 0 -i 22 -k AGT 
- -t 5.234194682 -s 0 -d -1 -p tcp -e 1040 -c 2 -a 0 -i 22 -k AGT
h -t 5.234194682 -s 0 -d -1 -p tcp -e 1040 -c 2 -a 0 -i 22 -k AGT
+ -t 5.234194682 -s 0 -d -1 -p tcp -e 1040 -c 2 -a 0 -i 23 -k AGT 
- -t 5.234194682 -s 0 -d -1 -p tcp -e 1040 -c 2 -a 0 -i 23 -k AGT
h -t 5.234194682 -s 0 -d -1 -p tcp -e 1040 -c 2 -a 0 -i 23 -k AGT
+ -t 5.234194682 -s 0 -d 3 -p tcp -e 1040 -c 2 -a 0 -i 22 -k RTR 
- -t 5.234194682 -s 0 -d 3 -p tcp -e 1040 -c 2 -a 0 -i 22 -k RTR
h -t 5.234194682 -s 0 -d 3 -p tcp -e 1040 -c 2 -a 0 -i 22 -k RTR
+ -t 5.234194682 -s 0 -d 3 -p tcp -e 1040 -c 2 -a 0 -i 23 -k RTR 
- -t 5.234194682 -s 0 -d 3 -p tcp -e 1040 -c 2 -a 0 -i 23 -k RTR
h -t 5.234194682 -s 0 -d 3 -p tcp -e 1040 -c 2 -a 0 -i 23 -k RTR
r -t 5.236101148 -s 0 -d 0 -p ack -e 40 -c 2 -a 0 -i 18 -k AGT
+ -t 5.236101148 -s 0 -d -1 -p tcp -e 1040 -c 2 -a 0 -i 24 -k AGT 
- -t 5.236101148 -s 0 -d -1 -p tcp -e 1040 -c 2 -a 0 -i 24 -k AGT
h -t 5.236101148 -s 0 -d -1 -p tcp -e 1040 -c 2 -a 0 -i 24 -k AGT
+ -t 5.236101148 -s 0 -d -1 -p tcp -e 1040 -c 2 -a 0 -i 25 -k AGT 
- -t 5.236101148 -s 0 -d -1 -p tcp -e 1040 -c 2 -a 0 -i 25 -k AGT
h -t 5.236101148 -s 0 -d -1 -p tcp -e 1040 -c 2 -a 0 -i 25 -k AGT
+ -t 5.236101148 -s 0 -d 3 -p tcp -e 1040 -c 2 -a 0 -i 24 -k RTR 
- -t 5.236101148 -s 0 -d 3 -p tcp -e 1040 -c 2 -a 0 -i 24 -k RTR
h -t 5.236101148 -s 0 -d 3 -p tcp -e 1040 -c 2 -a 0 -i 24 -k RTR
+ -t 5.236101148 -s 0 -d 3 -p tcp -e 1040 -c 2 -a 0 -i 25 -k RTR 
- -t 5.236101148 -s 0 -d 3 -p tcp -e 1040 -c 2 -a 0 -i 25 -k RTR
h -t 5.236101148 -s 0 -d 3 -p tcp -e 1040 -c 2 -a 0 -i 25 -k RTR
+ -t 5.246086998 -s 3 -d 5 -p tcp -e 1040 -c 2 -a 0 -i 19 -k RTR 
- -t 5.246086998 -s 3 -d 5 -p tcp -e 1040 -c 2 -a 0 -i 19 -k RTR
h -t 5.246086998 -s 3 -d 5 -p tcp -e 1040 -c 2 -a 0 -i 19 -k RTR
r -t 5.256012231 -s 5 -d 5 -p tcp -e 1040 -c 2 -a 0 -i 15 -k AGT
+ -t 5.256012231 -s 5 -d -1 -p ack -e 40 -c 2 -a 0 -i 26 -k AGT 
- -t 5.256012231 -s 5 -d -1 -p ack -e 40 -c 2 -a 0 -i 26 -k AGT
h -t 5.256012231 -s 5 -d -1 -p ack -e 40 -c 2 -a 0 -i 26 -k AGT
+ -t 5.256012231 -s 5 -d 3 -p ack -e 40 -c 2 -a 0 -i 26 -k RTR 
- -t 5.256012231 -s 5 -d 3 -p ack -e 40 -c 2 -a 0 -i 26 -k RTR
h -t 5.256012231 -s 5 -d 3 -p ack -e 40 -c 2 -a 0 -i 26 -k RTR
+ -t 5.257897463 -s 3 -d 0 -p ack -e 40 -c 2 -a 0 -i 26 -k RTR 
- -t 5.257897463 -s 3 -d 0 -p ack -e 40 -c 2 -a 0 -i 26 -k RTR
h -t 5.257897463 -s 3 -d 0 -p ack -e 40 -c 2 -a 0 -i 26 -k RTR
+ -t 5.267893882 -s 3 -d 5 -p tcp -e 1040 -c 2 -a 0 -i 20 -k RTR 
- -t 5.267893882 -s 3 -d 5 -p tcp -e 1040 -c 2 -a 0 -i 20 -k RTR
h -t 5.267893882 -s 3 -d 5 -p tcp -e 1040 -c 2 -a 0 -i 20 -k RTR
r -t 5.278666347 -s 5 -d 5 -p tcp -e 1040 -c 2 -a 0 -i 16 -k AGT
+ -t 5.278666347 -s 5 -d -1 -p ack -e 40 -c 2 -a 0 -i 27 -k AGT 
- -t 5.278666347 -s 5 -d -1 -p ack -e 40 -c 2 -a 0 -i 27 -k AGT
h -t 5.278666347 -s 5 -d -1 -p ack -e 40 -c 2 -a 0 -i 27 -k AGT
+ -t 5.278666347 -s 5 -d 3 -p ack -e 40 -c 2 -a 0 -i 27 -k RTR 
- -t 5.278666347 -s 5 -d 3 -p ack -e 40 -c 2 -a 0 -i 27 -k RTR
h -t 5.278666347 -s 5 -d 3 -p ack -e 40 -c 2 -a 0 -i 27 -k RTR
r -t 5.280612608 -s 0 -d 0 -p ack -e 40 -c 2 -a 0 -i 21 -k AGT
+ -t 5.280612608 -s 0 -d -1 -p tcp -e 1040 -c 2 -a 0 -i 28 -k AGT 
- -t 5.280612608 -s 0 -d -1 -p tcp -e 1040 -c 2 -a 0 -i 28 -k AGT
h -t 5.280612608 -s 0 -d -1 -p tcp -e 1040 -c 2 -a 0 -i 28 -k AGT
+ -t 5.280612608 -s 0 -d -1 -p tcp -e 1040 -c 2 -a 0 -i 29 -k AGT 
- -t 5.280612608 -s 0 -d -1 -p tcp -e 1040 -c 2 -a 0 -i 29 -k AGT
h -t 5.280612608 -s 0 -d -1 -p tcp -e 1040 -c 2 -a 0 -i 29 -k AGT
+ -t 5.280612608 -s 0 -d 3 -p tcp -e 1040 -c 2 -a 0 -i 28 -k RTR 
- -t 5.280612608 -s 0 -d 3 -p tcp -e 1040 -c 2 -a 0 -i 28 -k RTR
h -t 5.280612608 -s 0 -d 3 -p tcp -e 1040 -c 2 -a 0 -i 28 -k RTR
+ -t 5.280612608 -s 0 -d 3 -p tcp -e 1040 -c 2 -a 0 -i 29 -k RTR 
- -t 5.280612608 -s 0 -d 3 -p tcp -e 1040 -c 2 -a 0 -i 29 -k RTR
h -t 5.280612608 -s 0 -d 3 -p tcp -e 1040 -c 2 -a 0 -i 29 -k RTR
+ -t 5.290458458 -s 3 -d 5 -p tcp -e 1040 -c 2 -a 0 -i 22 -k RTR 
- -t 5.290458458 -s 3 -d 5 -p tcp -e 1040 -c 2 -a 0 -i 22 -k RTR
h -t 5.290458458 -s 3 -d 5 -p tcp -e 1040 -c 2 -a 0 -i 22 -k RTR
+ -t 5.292534054 -s 3 -d 0 -p ack -e 40 -c 2 -a 0 -i 27 -k RTR 
- -t 5.292534054 -s 3 -d 0 -p ack -e 40 -c 2 -a 0 -i 27 -k RTR
h -t 5.292534054 -s 3 -d 0 -p ack -e 40 -c 2 -a 0 -i 27 -k RTR
+ -t 5.302610473 -s 3 -d 5 -p tcp -e 1040 -c 2 -a 0 -i 23 -k RTR 
- -t 5.302610473 -s 3 -d 5 -p tcp -e 1040 -c 2 -a 0 -i 23 -k RTR
h -t 5.302610473 -s 3 -d 5 -p tcp -e 1040 -c 2 -a 0 -i 23 -k RTR
r -t 5.312535705 -s 5 -d 5 -p tcp -e 1040 -c 2 -a 0 -i 19 -k AGT
+ -t 5.312535705 -s 5 -d -1 -p ack -e 40 -c 2 -a 0 -i 30 -k AGT 
- -t 5.312535705 -s 5 -d -1 -p ack -e 40 -c 2 -a 0 -i 30 -k AGT
h -t 5.312535705 -s 5 -d -1 -p ack -e 40 -c 2 -a 0 -i 30 -k AGT
+ -t 5.312535705 -s 5 -d 3 -p ack -e 40 -c 2 -a 0 -i 30 -k RTR 
- -t 5.312535705 -s 5 -d 3 -p ack -e 40 -c 2 -a 0 -i 30 -k RTR
h -t 5.312535705 -s 5 -d 3 -p ack -e 40 -c 2 -a 0 -i 30 -k RTR
+ -t 5.314620937 -s 3 -d 0 -p ack -e 40 -c 2 -a 0 -i 30 -k RTR 
- -t 5.314620937 -s 3 -d 0 -p ack -e 40 -c 2 -a 0 -i 30 -k RTR
h -t 5.314620937 -s 3 -d 0 -p ack -e 40 -c 2 -a 0 -i 30 -k RTR
r -t 5.316506787 -s 0 -d 0 -p ack -e 40 -c 2 -a 0 -i 26 -k AGT
+ -t 5.316506787 -s 0 -d -1 -p tcp -e 1040 -c 2 -a 0 -i 31 -k AGT 
- -t 5.316506787 -s 0 -d -1 -p tcp -e 1040 -c 2 -a 0 -i 31 -k AGT
h -t 5.316506787 -s 0 -d -1 -p tcp -e 1040 -c 2 -a 0 -i 31 -k AGT
+ -t 5.316506787 -s 0 -d -1 -p tcp -e 1040 -c 2 -a 0 -i 32 -k AGT 
- -t 5.316506787 -s 0 -d -1 -p tcp -e 1040 -c 2 -a 0 -i 32 -k AGT
h -t 5.316506787 -s 0 -d -1 -p tcp -e 1040 -c 2 -a 0 -i 32 -k AGT
+ -t 5.316506787 -s 0 -d 3 -p tcp -e 1040 -c 2 -a 0 -i 31 -k RTR 
- -t 5.316506787 -s 0 -d 3 -p tcp -e 1040 -c 2 -a 0 -i 31 -k RTR
h -t 5.316506787 -s 0 -d 3 -p tcp -e 1040 -c 2 -a 0 -i 31 -k RTR
+ -t 5.316506787 -s 0 -d 3 -p tcp -e 1040 -c 2 -a 0 -i 32 -k RTR 
- -t 5.316506787 -s 0 -d 3 -p tcp -e 1040 -c 2 -a 0 -i 32 -k RTR
h -t 5.316506787 -s 0 -d 3 -p tcp -e 1040 -c 2 -a 0 -i 32 -k RTR
+ -t 5.326552637 -s 3 -d 5 -p tcp -e 1040 -c 2 -a 0 -i 24 -k RTR 
- -t 5.326552637 -s 3 -d 5 -p tcp -e 1040 -c 2 -a 0 -i 24 -k RTR
h -t 5.326552637 -s 3 -d 5 -p tcp -e 1040 -c 2 -a 0 -i 24 -k RTR
+ -t 5.336419104 -s 3 -d 5 -p tcp -e 1040 -c 2 -a 0 -i 25 -k RTR 
- -t 5.336419104 -s 3 -d 5 -p tcp -e 1040 -c 2 -a 0 -i 25 -k RTR
h -t 5.336419104 -s 3 -d 5 -p tcp -e 1040 -c 2 -a 0 -i 25 -k RTR
r -t 5.346324336 -s 5 -d 5 -p tcp -e 1040 -c 2 -a 0 -i 20 -k AGT
+ -t 5.346324336 -s 5 -d -1 -p ack -e 40 -c 2 -a 0 -i 33 -k AGT 
- -t 5.346324336 -s 5 -d -1 -p ack -e 40 -c 2 -a 0 -i 33 -k AGT
h -t 5.346324336 -s 5 -d -1 -p ack -e 40 -c 2 -a 0 -i 33 -k AGT
+ -t 5.346324336 -s 5 -d 3 -p ack -e 40 -c 2 -a 0 -i 33 -k RTR 
- -t 5.346324336 -s 5 -d 3 -p ack -e 40 -c 2 -a 0 -i 33 -k RTR
h -t 5.346324336 -s 5 -d 3 -p ack -e 40 -c 2 -a 0 -i 33 -k RTR
+ -t 5.349316390 -s 3 -d 0 -p ack -e 40 -c 2 -a 0 -i 33 -k RTR 
- -t 5.349316390 -s 3 -d 0 -p ack -e 40 -c 2 -a 0 -i 33 -k RTR
h -t 5.349316390 -s 3 -d 0 -p ack -e 40 -c 2 -a 0 -i 33 -k RTR
+ -t 5.359512809 -s 3 -d 5 -p tcp -e 1040 -c 2 -a 0 -i 28 -k RTR 
- -t 5.359512809 -s 3 -d 5 -p tcp -e 1040 -c 2 -a 0 -i 28 -k RTR
h -t 5.359512809 -s 3 -d 5 -p tcp -e 1040 -c 2 -a 0 -i 28 -k RTR
r -t 5.369598041 -s 5 -d 5 -p tcp -e 1040 -c 2 -a 0 -i 22 -k AGT
+ -t 5.369598041 -s 5 -d -1 -p ack -e 40 -c 2 -a 0 -i 34 -k AGT 
- -t 5.369598041 -s 5 -d -1 -p ack -e 40 -c 2 -a 0 -i 34 -k AGT
h -t 5.369598041 -s 5 -d -1 -p ack -e 40 -c 2 -a 0 -i 34 -k AGT
+ -t 5.369598041 -s 5 -d 3 -p ack -e 40 -c 2 -a 0 -i 34 -k RTR 
- -t 5.369598041 -s 5 -d 3 -p ack -e 40 -c 2 -a 0 -i 34 -k RTR
h -t 5.369598041 -s 5 -d 3 -p ack -e 40 -c 2 -a 0 -i 34 -k RTR
+ -t 5.371543273 -s 3 -d 0 -p ack -e 40 -c 2 -a 0 -i 34 -k RTR 
- -t 5.371543273 -s 3 -d 0 -p ack -e 40 -c 2 -a 0 -i 34 -k RTR
h -t 5.371543273 -s 3 -d 0 -p ack -e 40 -c 2 -a 0 -i 34 -k RTR
r -t 5.373429123 -s 0 -d 0 -p ack -e 40 -c 2 -a 0 -i 27 -k AGT
+ -t 5.373429123 -s 0 -d -1 -p tcp -e 1040 -c 2 -a 0 -i 35 -k AGT 
- -t 5.373429123 -s 0 -d -1 -p tcp -e 1040 -c 2 -a 0 -i 35 -k AGT
h -t 5.373429123 -s 0 -d -1 -p tcp -e 1040 -c 2 -a 0 -i 35 -k AGT
+ -t 5.373429123 -s 0 -d -1 -p tcp -e 1040 -c 2 -a 0 -i 36 -k AGT 
- -t 5.373429123 -s 0 -d -1 -p tcp -e 1040 -c 2 -a 0 -i 36 -k AGT
h -t 5.373429123 -s 0 -d -1 -p tcp -e 1040 -c 2 -a 0 -i 36 -k AGT
+ -t 5.373429123 -s 0 -d 3 -p tcp -e 1040 -c 2 -a 0 -i 35 -k RTR 
- -t 5.373429123 -s 0 -d 3 -p tcp -e 1040 -c 2 -a 0 -i 35 -k RTR
h -t 5.373429123 -s 0 -d 3 -p tcp -e 1040 -c 2 -a 0 -i 35 -k RTR
+ -t 5.373429123 -s 0 -d 3 -p tcp -e 1040 -c 2 -a 0 -i 36 -k RTR 
- -t 5.373429123 -s 0 -d 3 -p tcp -e 1040 -c 2 -a 0 -i 36 -k RTR
h -t 5.373429123 -s 0 -d 3 -p tcp -e 1040 -c 2 -a 0 -i 36 -k RTR
r -t 5.383254972 -s 5 -d 5 -p tcp -e 1040 -c 2 -a 0 -i 23 -k AGT
+ -t 5.383254972 -s 5 -d -1 -p ack -e 40 -c 2 -a 0 -i 37 -k AGT 
- -t 5.383254972 -s 5 -d -1 -p ack -e 40 -c 2 -a 0 -i 37 -k AGT
h -t 5.383254972 -s 5 -d -1 -p ack -e 40 -c 2 -a 0 -i 37 -k AGT
+ -t 5.383254972 -s 5 -d 3 -p ack -e 40 -c 2 -a 0 -i 37 -k RTR 
- -t 5.383254972 -s 5 -d 3 -p ack -e 40 -c 2 -a 0 -i 37 -k RTR
h -t 5.383254972 -s 5 -d 3 -p ack -e 40 -c 2 -a 0 -i 37 -k RTR
r -t 5.385221233 -s 0 -d 0 -p ack -e 40 -c 2 -a 0 -i 30 -k AGT
+ -t 5.385221233 -s 0 -d -1 -p tcp -e 1040 -c 2 -a 0 -i 38 -k AGT 
- -t 5.385221233 -s 0 -d -1 -p tcp -e 1040 -c 2 -a 0 -i 38 -k AGT
h -t 5.385221233 -s 0 -d -1 -p tcp -e 1040 -c 2 -a 0 -i 38 -k AGT
+ -t 5.385221233 -s 0 -d -1 -p tcp -e 1040 -c 2 -a 0 -i 39 -k AGT 
- -t 5.385221233 -s 0 -d -1 -p tcp -e 1040 -c 2 -a 0 -i 39 -k AGT
h -t 5.385221233 -s 0 -d -1 -p tcp -e 1040 -c 2 -a 0 -i 39 -k AGT
+ -t 5.385221233 -s 0 -d 3 -p tcp -e 1040 -c 2 -a 0 -i 38 -k RTR 
- -t 5.385221233 -s 0 -d 3 -p tcp -e 1040 -c 2 -a 0 -i 38 -k RTR
h -t 5.385221233 -s 0 -d 3 -p tcp -e 1040 -c 2 -a 0 -i 38 -k RTR
+ -t 5.385221233 -s 0 -d 3 -p tcp -e 1040 -c 2 -a 0 -i 39 -k RTR 
- -t 5.385221233 -s 0 -d 3 -p tcp -e 1040 -c 2 -a 0 -i 39 -k RTR
h -t 5.385221233 -s 0 -d 3 -p tcp -e 1040 -c 2 -a 0 -i 39 -k RTR
+ -t 5.395207083 -s 3 -d 5 -p tcp -e 1040 -c 2 -a 0 -i 29 -k RTR 
- -t 5.395207083 -s 3 -d 5 -p tcp -e 1040 -c 2 -a 0 -i 29 -k RTR
h -t 5.395207083 -s 3 -d 5 -p tcp -e 1040 -c 2 -a 0 -i 29 -k RTR
+ -t 5.397102678 -s 3 -d 0 -p ack -e 40 -c 2 -a 0 -i 37 -k RTR 
- -t 5.397102678 -s 3 -d 0 -p ack -e 40 -c 2 -a 0 -i 37 -k RTR
h -t 5.397102678 -s 3 -d 0 -p ack -e 40 -c 2 -a 0 -i 37 -k RTR
r -t 5.407067911 -s 5 -d 5 -p tcp -e 1040 -c 2 -a 0 -i 24 -k AGT
+ -t 5.407067911 -s 5 -d -1 -p ack -e 40 -c 2 -a 0 -i 40 -k AGT 
- -t 5.407067911 -s 5 -d -1 -p ack -e 40 -c 2 -a 0 -i 40 -k AGT
h -t 5.407067911 -s 5 -d -1 -p ack -e 40 -c 2 -a 0 -i 40 -k AGT
+ -t 5.407067911 -s 5 -d 3 -p ack -e 40 -c 2 -a 0 -i 40 -k RTR 
- -t 5.407067911 -s 5 -d 3 -p ack -e 40 -c 2 -a 0 -i 40 -k RTR
h -t 5.407067911 -s 5 -d 3 -p ack -e 40 -c 2 -a 0 -i 40 -k RTR
+ -t 5.409173143 -s 3 -d 0 -p ack -e 40 -c 2 -a 0 -i 40 -k RTR 
- -t 5.409173143 -s 3 -d 0 -p ack -e 40 -c 2 -a 0 -i 40 -k RTR
h -t 5.409173143 -s 3 -d 0 -p ack -e 40 -c 2 -a 0 -i 40 -k RTR
r -t 5.419218375 -s 5 -d 5 -p tcp -e 1040 -c 2 -a 0 -i 25 -k AGT
+ -t 5.419218375 -s 5 -d -1 -p ack -e 40 -c 2 -a 0 -i 41 -k AGT 
- -t 5.419218375 -s 5 -d -1 -p ack -e 40 -c 2 -a 0 -i 41 -k AGT
h -t 5.419218375 -s 5 -d -1 -p ack -e 40 -c 2 -a 0 -i 41 -k AGT
+ -t 5.419218375 -s 5 -d 3 -p ack -e 40 -c 2 -a 0 -i 41 -k RTR 
- -t 5.419218375 -s 5 -d 3 -p ack -e 40 -c 2 -a 0 -i 41 -k RTR
h -t 5.419218375 -s 5 -d 3 -p ack -e 40 -c 2 -a 0 -i 41 -k RTR
+ -t 5.421143607 -s 3 -d 0 -p ack -e 40 -c 2 -a 0 -i 41 -k RTR 
- -t 5.421143607 -s 3 -d 0 -p ack -e 40 -c 2 -a 0 -i 41 -k RTR
h -t 5.421143607 -s 3 -d 0 -p ack -e 40 -c 2 -a 0 -i 41 -k RTR
+ -t 5.431040026 -s 3 -d 5 -p tcp -e 1040 -c 2 -a 0 -i 31 -k RTR 
- -t 5.431040026 -s 3 -d 5 -p tcp -e 1040 -c 2 -a 0 -i 31 -k RTR
h -t 5.431040026 -s 3 -d 5 -p tcp -e 1040 -c 2 -a 0 -i 31 -k RTR
r -t 5.432885876 -s 0 -d 0 -p ack -e 40 -c 2 -a 0 -i 33 -k AGT
+ -t 5.432885876 -s 0 -d -1 -p tcp -e 1040 -c 2 -a 0 -i 42 -k AGT 
- -t 5.432885876 -s 0 -d -1 -p tcp -e 1040 -c 2 -a 0 -i 42 -k AGT
h -t 5.432885876 -s 0 -d -1 -p tcp -e 1040 -c 2 -a 0 -i 42 -k AGT
+ -t 5.432885876 -s 0 -d -1 -p tcp -e 1040 -c 2 -a 0 -i 43 -k AGT 
- -t 5.432885876 -s 0 -d -1 -p tcp -e 1040 -c 2 -a 0 -i 43 -k AGT
h -t 5.432885876 -s 0 -d -1 -p tcp -e 1040 -c 2 -a 0 -i 43 -k AGT
+ -t 5.432885876 -s 0 -d 3 -p tcp -e 1040 -c 2 -a 0 -i 42 -k RTR 
- -t 5.432885876 -s 0 -d 3 -p tcp -e 1040 -c 2 -a 0 -i 42 -k RTR
h -t 5.432885876 -s 0 -d 3 -p tcp -e 1040 -c 2 -a 0 -i 42 -k RTR
+ -t 5.432885876 -s 0 -d 3 -p tcp -e 1040 -c 2 -a 0 -i 43 -k RTR 
- -t 5.432885876 -s 0 -d 3 -p tcp -e 1040 -c 2 -a 0 -i 43 -k RTR
h -t 5.432885876 -s 0 -d 3 -p tcp -e 1040 -c 2 -a 0 -i 43 -k RTR
r -t 5.442811725 -s 5 -d 5 -p tcp -e 1040 -c 2 -a 0 -i 28 -k AGT
+ -t 5.442811725 -s 5 -d -1 -p ack -e 40 -c 2 -a 0 -i 44 -k AGT 
- -t 5.442811725 -s 5 -d -1 -p ack -e 40 -c 2 -a 0 -i 44 -k AGT
h -t 5.442811725 -s 5 -d -1 -p ack -e 40 -c 2 -a 0 -i 44 -k AGT
+ -t 5.442811725 -s 5 -d 3 -p ack -e 40 -c 2 -a 0 -i 44 -k RTR 
- -t 5.442811725 -s 5 -d 3 -p ack -e 40 -c 2 -a 0 -i 44 -k RTR
h -t 5.442811725 -s 5 -d 3 -p ack -e 40 -c 2 -a 0 -i 44 -k RTR
+ -t 5.444636958 -s 3 -d 0 -p ack -e 40 -c 2 -a 0 -i 44 -k RTR 
- -t 5.444636958 -s 3 -d 0 -p ack -e 40 -c 2 -a 0 -i 44 -k RTR