s 5.000000000 _0_ AGT  --- 0 tcp 40 [0 0 0 0] ------- [0:0 5:0 32 0] [0 0] 0 0
r 5.000000000 _0_ RTR  --- 0 tcp 40 [0 0 0 0] ------- [0:0 5:0 32 0] [0 0] 0 0
s 5.000000000 _0_ RTR  --- 0 AODV 48 [0 0 0 0] ------- [0:255 -1:255 30 0] [0x2 1 1 [5 0] [0 4]] (REQUEST)
r 5.001508200 _1_ RTR  --- 0 AODV 48 [0 ffffffff 0 800] ------- [0:255 -1:255 30 0] [0x2 1 1 [5 0] [0 4]] (REQUEST)
r 5.001508350 _2_ RTR  --- 0 AODV 48 [0 ffffffff 0 800] ------- [0:255 -1:255 30 0] [0x2 1 1 [5 0] [0 4]] (REQUEST)
r 5.001508617 _3_ RTR  --- 0 AODV 48 [0 ffffffff 0 800] ------- [0:255 -1:255 30 0] [0x2 1 1 [5 0] [0 4]] (REQUEST)
r 5.001508726 _4_ RTR  --- 0 AODV 48 [0 ffffffff 0 800] ------- [0:255 -1:255 30 0] [0x2 1 1 [5 0] [0 4]] (REQUEST)
s 5.004638234 _3_ RTR  --- 0 AODV 48 [0 ffffffff 0 800] ------- [3:255 -1:255 29 0] [0x2 2 1 [5 0] [0 4]] (REQUEST)
r 5.005826618 _4_ RTR  --- 0 AODV 48 [0 ffffffff 3 800] ------- [3:255 -1:255 29 0] [0x2 2 1 [5 0] [0 4]] (REQUEST)
r 5.005826645 _5_ RTR  --- 0 AODV 48 [0 ffffffff 3 800] ------- [3:255 -1:255 29 0] [0x2 2 1 [5 0] [0 4]] (REQUEST)
s 5.005826645 _5_ RTR  --- 0 AODV 44 [0 0 0 0] ------- [5:255 0:255 30 3] [0x4 1 [5 4] 10.000000] (REPLY)
r 5.005826851 _0_ RTR  --- 0 AODV 48 [0 ffffffff 3 800] ------- [3:255 -1:255 29 0] [0x2 2 1 [5 0] [0 4]] (REQUEST)
r 5.005826883 _1_ RTR  --- 0 AODV 48 [0 ffffffff 3 800] ------- [3:255 -1:255 29 0] [0x2 2 1 [5 0] [0 4]] (REQUEST)
r 5.005826943 _2_ RTR  --- 0 AODV 48 [0 ffffffff 3 800] ------- [3:255 -1:255 29 0] [0x2 2 1 [5 0] [0 4]] (REQUEST)
s 5.005919934 _1_ RTR  --- 0 AODV 48 [0 ffffffff 0 800] ------- [1:255 -1:255 29 0] [0x2 2 1 [5 0] [0 4]] (REQUEST)
s 5.009499905 _2_ RTR  --- 0 AODV 48 [0 ffffffff 0 800] ------- [2:255 -1:255 29 0] [0x2 2 1 [5 0] [0 4]] (REQUEST)
s 5.009673487 _4_ RTR  --- 0 AODV 48 [0 ffffffff 0 800] ------- [4:255 -1:255 29 0] [0x2 2 1 [5 0] [0 4]] (REQUEST)
r 5.010027389 _2_ RTR  --- 0 AODV 48 [0 ffffffff 1 800] ------- [1:255 -1:255 29 0] [0x2 2 1 [5 0] [0 4]] (REQUEST)
r 5.010027439 _0_ RTR  --- 0 AODV 48 [0 ffffffff 1 800] ------- [1:255 -1:255 29 0] [0x2 2 1 [5 0] [0 4]] (REQUEST)
r 5.010027882 _4_ RTR  --- 0 AODV 48 [0 ffffffff 1 800] ------- [1:255 -1:255 29 0] [0x2 2 1 [5 0] [0 4]] (REQUEST)
r 5.010027887 _3_ RTR  --- 0 AODV 48 [0 ffffffff 1 800] ------- [1:255 -1:255 29 0] [0x2 2 1 [5 0] [0 4]] (REQUEST)
r 5.011166245 _5_ RTR  --- 0 AODV 48 [0 ffffffff 4 800] ------- [4:255 -1:255 29 0] [0x2 2 1 [5 0] [0 4]] (REQUEST)
r 5.011166266 _3_ RTR  --- 0 AODV 48 [0 ffffffff 4 800] ------- [4:255 -1:255 29 0] [0x2 2 1 [5 0] [0 4]] (REQUEST)
r 5.011166500 _2_ RTR  --- 0 AODV 48 [0 ffffffff 4 800] ------- [4:255 -1:255 29 0] [0x2 2 1 [5 0] [0 4]] (REQUEST)
r 5.011166526 _1_ RTR  --- 0 AODV 48 [0 ffffffff 4 800] ------- [4:255 -1:255 29 0] [0x2 2 1 [5 0] [0 4]] (REQUEST)
r 5.011166608 _0_ RTR  --- 0 AODV 48 [0 ffffffff 4 800] ------- [4:255 -1:255 29 0] [0x2 2 1 [5 0] [0 4]] (REQUEST)
r 5.012789477 _3_ RTR  --- 0 AODV 44 [13a 3 5 800] ------- [5:255 0:255 30 3] [0x4 1 [5 4] 10.000000] (REPLY)
f 5.012789477 _3_ RTR  --- 0 AODV 44 [13a 3 5 800] ------- [5:255 0:255 29 0] [0x4 2 [5 4] 10.000000] (REPLY)
r 5.014092173 _1_ RTR  --- 0 AODV 48 [0 ffffffff 2 800] ------- [2:255 -1:255 29 0] [0x2 2 1 [5 0] [0 4]] (REQUEST)
r 5.014092373 _0_ RTR  --- 0 AODV 48 [0 ffffffff 2 800] ------- [2:255 -1:255 29 0] [0x2 2 1 [5 0] [0 4]] (REQUEST)
r 5.014092641 _4_ RTR  --- 0 AODV 48 [0 ffffffff 2 800] ------- [2:255 -1:255 29 0] [0x2 2 1 [5 0] [0 4]] (REQUEST)
r 5.014092732 _3_ RTR  --- 0 AODV 48 [0 ffffffff 2 800] ------- [2:255 -1:255 29 0] [0x2 2 1 [5 0] [0 4]] (REQUEST)
r 5.018590049 _0_ RTR  --- 0 AODV 44 [13a 0 3 800] ------- [5:255 0:255 29 0] [0x4 2 [5 4] 10.000000] (REPLY)
s 5.018590049 _0_ RTR  --- 0 tcp 40 [0 0 0 0] ------- [0:0 5:0 30 3] [0 0] 0 0
r 5.020455899 _3_ RTR  --- 0 tcp 40 [13a 3 0 800] ------- [0:0 5:0 30 3] [0 0] 1 0
f 5.020455899 _3_ RTR  --- 0 tcp 40 [13a 3 0 800] ------- [0:0 5:0 29 5] [0 0] 1 0
r 5.022681131 _5_ AGT  --- 0 tcp 40 [13a 5 3 800] ------- [0:0 5:0 29 5] [0 0] 2 0
s 5.022681131 _5_ AGT  --- 1 ack 40 [0 0 0 0] ------- [5:0 0:0 32 0] [0 0] 0 0
r 5.022681131 _5_ RTR  --- 1 ack 40 [0 0 0 0] ------- [5:0 0:0 32 0] [0 0] 0 0
s 5.022681131 _5_ RTR  --- 1 ack 40 [0 0 0 0] ------- [5:0 0:0 30 3] [0 0] 0 0
r 5.025086363 _3_ RTR  --- 1 ack 40 [13a 3 5 800] ------- [5:0 0:0 30 3] [0 0] 1 0
f 5.025086363 _3_ RTR  --- 1 ack 40 [13a 3 5 800] ------- [5:0 0:0 29 0] [0 0] 1 0
r 5.027452213 _0_ AGT  --- 1 ack 40 [13a 0 3 800] ------- [5:0 0:0 29 0] [0 0] 2 0
s 5.027452213 _0_ AGT  --- 2 tcp 1040 [0 0 0 0] ------- [0:0 5:0 32 0] [1 0] 0 0
r 5.027452213 _0_ RTR  --- 2 tcp 1040 [0 0 0 0] ------- [0:0 5:0 32 0] [1 0] 0 0
s 5.027452213 _0_ AGT  --- 3 tcp 1040 [0 0 0 0] ------- [0:0 5:0 32 0] [2 0] 0 0
r 5.027452213 _0_ RTR  --- 3 tcp 1040 [0 0 0 0] ------- [0:0 5:0 32 0] [2 0] 0 0
s 5.027452213 _0_ RTR  --- 2 tcp 1040 [0 0 0 0] ------- [0:0 5:0 30 3] [1 0] 0 0
s 5.027452213 _0_ RTR  --- 3 tcp 1040 [0 0 0 0] ------- [0:0 5:0 30 3] [2 0] 0 0
r 5.037318063 _3_ RTR  --- 2 tcp 1040 [13a 3 0 800] ------- [0:0 5:0 30 3] [1 0] 1 0
f 5.037318063 _3_ RTR  --- 2 tcp 1040 [13a 3 0 800] ------- [0:0 5:0 29 5] [1 0] 1 0
r 5.047403295 _5_ AGT  --- 2 tcp 1040 [13a 5 3 800] ------- [0:0 5:0 29 5] [1 0] 2 0
s 5.047403295 _5_ AGT  --- 4 ack 40 [0 0 0 0] ------- [5:0 0:0 32 0] [1 0] 0 0
r 5.047403295 _5_ RTR  --- 4 ack 40 [0 0 0 0] ------- [5:0 0:0 32 0] [1 0] 0 0
s 5.047403295 _5_ RTR  --- 4 ack 40 [0 0 0 0] ------- [5:0 0:0 30 3] [1 0] 0 0
r 5.049368528 _3_ RTR  --- 4 ack 40 [13a 3 5 800] ------- [5:0 0:0 30 3] [1 0] 1 0
f 5.049368528 _3_ RTR  --- 4 ack 40 [13a 3 5 800] ------- [5:0 0:0 29 0] [1 0] 1 0
r 5.059364947 _3_ RTR  --- 3 tcp 1040 [13a 3 0 800] ------- [0:0 5:0 30 3] [2 0] 1 0
f 5.059364947 _3_ RTR  --- 3 tcp 1040 [13a 3 0 800] ------- [0:0 5:0 29 5] [2 0] 1 0
r 5.061310797 _0_ AGT  --- 4 ack 40 [13a 0 3 800] ------- [5:0 0:0 29 0] [1 0] 2 0
s 5.061310797 _0_ AGT  --- 5 tcp 1040 [0 0 0 0] ------- [0:0 5:0 32 0] [3 0] 0 0
r 5.061310797 _0_ RTR  --- 5 tcp 1040 [0 0 0 0] ------- [0:0 5:0 32 0] [3 0] 0 0
s 5.061310797 _0_ AGT  --- 6 tcp 1040 [0 0 0 0] ------- [0:0 5:0 32 0] [4 0] 0 0
r 5.061310797 _0_ RTR  --- 6 tcp 1040 [0 0 0 0] ------- [0:0 5:0 32 0] [4 0] 0 0
s 5.061310797 _0_ RTR  --- 5 tcp 1040 [0 0 0 0] ------- [0:0 5:0 30 3] [3 0] 0 0
s 5.061310797 _0_ RTR  --- 6 tcp 1040 [0 0 0 0] ------- [0:0 5:0 30 3] [4 0] 0 0
r 5.071356646 _5_ AGT  --- 3 tcp 1040 [13a 5 3 800] ------- [0:0 5:0 29 5] [2 0] 2 0
s 5.071356646 _5_ AGT  --- 7 ack 40 [0 0 0 0] ------- [5:0 0:0 32 0] [2 0] 0 0
r 5.071356646 _5_ RTR  --- 7 ack 40 [0 0 0 0] ------- [5:0 0:0 32 0] [2 0] 0 0
s 5.071356646 _5_ RTR  --- 7 ack 40 [0 0 0 0] ------- [5:0 0:0 30 3] [2 0] 0 0
r 5.073381878 _3_ RTR  --- 7 ack 40 [13a 3 5 800] ------- [5:0 0:0 30 3] [2 0] 1 0
f 5.073381878 _3_ RTR  --- 7 ack 40 [13a 3 5 800] ------- [5:0 0:0 29 0] [2 0] 1 0
r 5.083558297 _3_ RTR  --- 5 tcp 1040 [13a 3 0 800] ------- [0:0 5:0 30 3] [3 0] 1 0
f 5.083558297 _3_ RTR  --- 5 tcp 1040 [13a 3 0 800] ------- [0:0 5:0 29 5] [3 0] 1 0
r 5.085424147 _0_ AGT  --- 7 ack 40 [13a 0 3 800] ------- [5:0 0:0 29 0] [2 0] 2 0
s 5.085424147 _0_ AGT  --- 8 tcp 1040 [0 0 0 0] ------- [0:0 5:0 32 0] [5 0] 0 0
r 5.085424147 _0_ RTR  --- 8 tcp 1040 [0 0 0 0] ------- [0:0 5:0 32 0] [5 0] 0 0
s 5.085424147 _0_ AGT  --- 9 tcp 1040 [0 0 0 0] ------- [0:0 5:0 32 0] [6 0] 0 0
r 5.085424147 _0_ RTR  --- 9 tcp 1040 [0 0 0 0] ------- [0:0 5:0 32 0] [6 0] 0 0
s 5.085424147 _0_ RTR  --- 8 tcp 1040 [0 0 0 0] ------- [0:0 5:0 30 3] [5 0] 0 0
s 5.085424147 _0_ RTR  --- 9 tcp 1040 [0 0 0 0] ------- [0:0 5:0 30 3] [6 0] 0 0
r 5.095329997 _3_ RTR  --- 6 tcp 1040 [13a 3 0 800] ------- [0:0 5:0 30 3] [4 0] 1 0
f 5.095329997 _3_ RTR  --- 6 tcp 1040 [13a 3 0 800] ------- [0:0 5:0 29 5] [4 0] 1 0
r 5.105415229 _5_ AGT  --- 5 tcp 1040 [13a 5 3 800] ------- [0:0 5:0 29 5] [3 0] 2 0
s 5.105415229 _5_ AGT  --- 10 ack 40 [0 0 0 0] ------- [5:0 0:0 32 0] [3 0] 0 0
r 5.105415229 _5_ RTR  --- 10 ack 40 [0 0 0 0] ------- [5:0 0:0 32 0] [3 0] 0 0
s 5.105415229 _5_ RTR  --- 10 ack 40 [0 0 0 0] ------- [5:0 0:0 30 3] [3 0] 0 0
r 5.115420872 _5_ AGT  --- 6 tcp 1040 [13a 5 3 800] ------- [0:0 5:0 29 5] [4 0] 2 0
s 5.115420872 _5_ AGT  --- 11 ack 40 [0 0 0 0] ------- [5:0 0:0 32 0] [4 0] 0 0
r 5.115420872 _5_ RTR  --- 11 ack 40 [0 0 0 0] ------- [5:0 0:0 32 0] [4 0] 0 0
s 5.115420872 _5_ RTR  --- 11 ack 40 [0 0 0 0] ------- [5:0 0:0 30 3] [4 0] 0 0
r 5.117346104 _3_ RTR  --- 10 ack 40 [13a 3 5 800] ------- [5:0 0:0 30 3] [3 0] 1 0
f 5.117346104 _3_ RTR  --- 10 ack 40 [13a 3 5 800] ------- [5:0 0:0 29 0] [3 0] 1 0
r 5.119371954 _0_ AGT  --- 10 ack 40 [13a 0 3 800] ------- [5:0 0:0 29 0] [3 0] 2 0
s 5.119371954 _0_ AGT  --- 12 tcp 1040 [0 0 0 0] ------- [0:0 5:0 32 0] [7 0] 0 0
r 5.119371954 _0_ RTR  --- 12 tcp 1040 [0 0 0 0] ------- [0:0 5:0 32 0] [7 0] 0 0
s 5.119371954 _0_ AGT  --- 13 tcp 1040 [0 0 0 0] ------- [0:0 5:0 32 0] [8 0] 0 0
r 5.119371954 _0_ RTR  --- 13 tcp 1040 [0 0 0 0] ------- [0:0 5:0 32 0] [8 0] 0 0
s 5.119371954 _0_ RTR  --- 12 tcp 1040 [0 0 0 0] ------- [0:0 5:0 30 3] [7 0] 0 0
s 5.119371954 _0_ RTR  --- 13 tcp 1040 [0 0 0 0] ------- [0:0 5:0 30 3] [8 0] 0 0
r 5.129317804 _3_ RTR  --- 8 tcp 1040 [13a 3 0 800] ------- [0:0 5:0 30 3] [5 0] 1 0
f 5.129317804 _3_ RTR  --- 8 tcp 1040 [13a 3 0 800] ------- [0:0 5:0 29 5] [5 0] 1 0
r 5.139363037 _5_ AGT  --- 8 tcp 1040 [13a 5 3 800] ------- [0:0 5:0 29 5] [5 0] 2 0
s 5.139363037 _5_ AGT  --- 14 ack 40 [0 0 0 0] ------- [5:0 0:0 32 0] [5 0] 0 0
r 5.139363037 _5_ RTR  --- 14 ack 40 [0 0 0 0] ------- [5:0 0:0 32 0] [5 0] 0 0
s 5.139363037 _5_ RTR  --- 14 ack 40 [0 0 0 0] ------- [5:0 0:0 30 3] [5 0] 0 0
r 5.141308269 _3_ RTR  --- 11 ack 40 [13a 3 5 800] ------- [5:0 0:0 30 3] [4 0] 1 0
f 5.141308269 _3_ RTR  --- 11 ack 40 [13a 3 5 800] ------- [5:0 0:0 29 0] [4 0] 1 0
r 5.143194119 _0_ AGT  --- 11 ack 40 [13a 0 3 800] ------- [5:0 0:0 29 0] [4 0] 2 0
s 5.143194119 _0_ AGT  --- 15 tcp 1040 [0 0 0 0] ------- [0:0 5:0 32 0] [9 0] 0 0
r 5.143194119 _0_ RTR  --- 15 tcp 1040 [0 0 0 0] ------- [0:0 5:0 32 0] [9 0] 0 0
s 5.143194119 _0_ AGT  --- 16 tcp 1040 [0 0 0 0] ------- [0:0 5:0 32 0] [10 0] 0 0
r 5.143194119 _0_ RTR  --- 16 tcp 1040 [0 0 0 0] ------- [0:0 5:0 32 0] [10 0] 0 0
s 5.143194119 _0_ RTR  --- 15 tcp 1040 [0 0 0 0] ------- [0:0 5:0 30 3] [9 0] 0 0
s 5.143194119 _0_ RTR  --- 16 tcp 1040 [0 0 0 0] ------- [0:0 5:0 30 3] [10 0] 0 0
r 5.153119969 _3_ RTR  --- 9 tcp 1040 [13a 3 0 800] ------- [0:0 5:0 30 3] [6 0] 1 0
f 5.153119969 _3_ RTR  --- 9 tcp 1040 [13a 3 0 800] ------- [0:0 5:0 29 5] [6 0] 1 0
r 5.162946436 _3_ RTR  --- 12 tcp 1040 [13a 3 0 800] ------- [0:0 5:0 30 3] [7 0] 1 0
f 5.162946436 _3_ RTR  --- 12 tcp 1040 [13a 3 0 800] ------- [0:0 5:0 29 5] [7 0] 1 0
r 5.164982031 _3_ RTR  --- 14 ack 40 [13a 3 5 800] ------- [5:0 0:0 30 3] [5 0] 1 0
f 5.164982031 _3_ RTR  --- 14 ack 40 [13a 3 5 800] ------- [5:0 0:0 29 0] [5 0] 1 0
r 5.174898450 _3_ RTR  --- 13 tcp 1040 [13a 3 0 800] ------- [0:0 5:0 30 3] [8 0] 1 0
f 5.174898450 _3_ RTR  --- 13 tcp 1040 [13a 3 0 800] ------- [0:0 5:0 29 5] [8 0] 1 0
r 5.184743682 _5_ AGT  --- 9 tcp 1040 [13a 5 3 800] ------- [0:0 5:0 29 5] [6 0] 2 0
s 5.184743682 _5_ AGT  --- 17 ack 40 [0 0 0 0] ------- [5:0 0:0 32 0] [6 0] 0 0
r 5.184743682 _5_ RTR  --- 17 ack 40 [0 0 0 0] ------- [5:0 0:0 32 0] [6 0] 0 0
s 5.184743682 _5_ RTR  --- 17 ack 40 [0 0 0 0] ------- [5:0 0:0 30 3] [6 0] 0 0
r 5.194589325 _5_ AGT  --- 12 tcp 1040 [13a 5 3 800] ------- [0:0 5:0 29 5] [7 0] 2 0
s 5.194589325 _5_ AGT  --- 18 ack 40 [0 0 0 0] ------- [5:0 0:0 32 0] [7 0] 0 0
r 5.194589325 _5_ RTR  --- 18 ack 40 [0 0 0 0] ------- [5:0 0:0 32 0] [7 0] 0 0
s 5.194589325 _5_ RTR  --- 18 ack 40 [0 0 0 0] ------- [5:0 0:0 30 3] [7 0] 0 0
r 5.196614558 _3_ RTR  --- 17 ack 40 [13a 3 5 800] ------- [5:0 0:0 30 3] [6 0] 1 0
f 5.196614558 _3_ RTR  --- 17 ack 40 [13a 3 5 800] ------- [5:0 0:0 29 0] [6 0] 1 0
r 5.198680200 _3_ RTR  --- 18 ack 40 [13a 3 5 800] ------- [5:0 0:0 30 3] [7 0] 1 0
f 5.198680200 _3_ RTR  --- 18 ack 40 [13a 3 5 800] ------- [5:0 0:0 29 0] [7 0] 1 0
r 5.200546050 _0_ AGT  --- 14 ack 40 [13a 0 3 800] ------- [5:0 0:0 29 0] [5 0] 2 0
s 5.200546050 _0_ AGT  --- 19 tcp 1040 [0 0 0 0] ------- [0:0 5:0 32 0] [11 0] 0 0
r 5.200546050 _0_ RTR  --- 19 tcp 1040 [0 0 0 0] ------- [0:0 5:0 32 0] [11 0] 0 0
s 5.200546050 _0_ AGT  --- 20 tcp 1040 [0 0 0 0] ------- [0:0 5:0 32 0] [12 0] 0 0
r 5.200546050 _0_ RTR  --- 20 tcp 1040 [0 0 0 0] ------- [0:0 5:0 32 0] [12 0] 0 0
s 5.200546050 _0_ RTR  --- 19 tcp 1040 [0 0 0 0] ------- [0:0 5:0 30 3] [11 0] 0 0
s 5.200546050 _0_ RTR  --- 20 tcp 1040 [0 0 0 0] ------- [0:0 5:0 30 3] [12 0] 0 0
r 5.210451900 _3_ RTR  --- 15 tcp 1040 [13a 3 0 800] ------- [0:0 5:0 30 3] [9 0] 1 0
f 5.210451900 _3_ RTR  --- 15 tcp 1040 [13a 3 0 800] ------- [0:0 5:0 29 5] [9 0] 1 0
r 5.220318367 _3_ RTR  --- 16 tcp 1040 [13a 3 0 800] ------- [0:0 5:0 30 3] [10 0] 1 0
f 5.220318367 _3_ RTR  --- 16 tcp 1040 [13a 3 0 800] ------- [0:0 5:0 29 5] [10 0] 1 0
r 5.230323599 _5_ AGT  --- 13 tcp 1040 [13a 5 3 800] ------- [0:0 5:0 29 5] [8 0] 2 0
s 5.230323599 _5_ AGT  --- 21 ack 40 [0 0 0 0] ------- [5:0 0:0 32 0] [8 0] 0 0
r 5.230323599 _5_ RTR  --- 21 ack 40 [0 0 0 0] ------- [5:0 0:0 32 0] [8 0] 0 0
s 5.230323599 _5_ RTR  --- 21 ack 40 [0 0 0 0] ------- [5:0 0:0 30 3] [8 0] 0 0
r 5.232268832 _3_ RTR  --- 21 ack 40 [13a 3 5 800] ------- [5:0 0:0 30 3] [8 0] 1 0
f 5.232268832 _3_ RTR  --- 21 ack 40 [13a 3 5 800] ------- [5:0 0:0 29 0] [8 0] 1 0
r 5.234194682 _0_ AGT  --- 17 ack 40 [13a 0 3 800] ------- [5:0 0:0 29 0] [6 0] 2 0
s 5.234194682 _0_ AGT  --- 22 tcp 1040 [0 0 0 0] ------- [0:0 5:0 32 0] [13 0] 0 0
r 5.234194682 _0_ RTR  --- 22 tcp 1040 [0 0 0 0] ------- [0:0 5:0 32 0] [13 0] 0 0
s 5.234194682 _0_ AGT  --- 23 tcp 1040 [0 0 0 0] ------- [0:0 5:0 32 0] [14 0] 0 0
r 5.234194682 _0_ RTR  --- 23 tcp 1040 [0 0 0 0] ------- [0:0 5:0 32 0] [14 0] 0 0
s 5.234194682 _0_ RTR  --- 22 tcp 1040 [0 0 0 0] ------- [0:0 5:0 30 3] [13 0] 0 0
s 5.234194682 _0_ RTR  --- 23 tcp 1040 [0 0 0 0] ------- [0:0 5:0 30 3] [14 0] 0 0
r 5.236101148 _0_ AGT  --- 18 ack 40 [13a 0 3 800] ------- [5:0 0:0 29 0] [7 0] 2 0
s 5.236101148 _0_ AGT  --- 24 tcp 1040 [0 0 0 0] ------- [0:0 5:0 32 0] [15 0] 0 0
r 5.236101148 _0_ RTR  --- 24 tcp 1040 [0 0 0 0] ------- [0:0 5:0 32 0] [15 0] 0 0
s 5.236101148 _0_ AGT  --- 25 tcp 1040 [0 0 0 0] ------- [0:0 5:0 32 0] [16 0] 0 0
r 5.236101148 _0_ RTR  --- 25 tcp 1040 [0 0 0 0] ------- [0:0 5:0 32 0] [16 0] 0 0
s 5.236101148 _0_ RTR  --- 24 tcp 1040 [0 0 0 0] ------- [0:0 5:0 30 3] [15 0] 0 0
s 5.236101148 _0_ RTR  --- 25 tcp 1040 [0 0 0 0] ------- [0:0 5:0 30 3] [16 0] 0 0
r 5.246086998 _3_ RTR  --- 19 tcp 1040 [13a 3 0 800] ------- [0:0 5:0 30 3] [11 0] 1 0
f 5.246086998 _3_ RTR  --- 19 tcp 1040 [13a 3 0 800] ------- [0:0 5:0 29 5] [11 0] 1 0
r 5.256012231 _5_ AGT  --- 15 tcp 1040 [13a 5 3 800] ------- [0:0 5:0 29 5] [9 0] 2 0
s 5.256012231 _5_ AGT  --- 26 ack 40 [0 0 0 0] ------- [5:0 0:0 32 0] [9 0] 0 0
r 5.256012231 _5_ RTR  --- 26 ack 40 [0 0 0 0] ------- [5:0 0:0 32 0] [9 0] 0 0
s 5.256012231 _5_ RTR  --- 26 ack 40 [0 0 0 0] ------- [5:0 0:0 30 3] [9 0] 0 0
r 5.257897463 _3_ RTR  --- 26 ack 40 [13a 3 5 800] ------- [5:0 0:0 30 3] [9 0] 1 0
f 5.257897463 _3_ RTR  --- 26 ack 40 [13a 3 5 800] ------- [5:0 0:0 29 0] [9 0] 1 0
r 5.267893882 _3_ RTR  --- 20 tcp 1040 [13a 3 0 800] ------- [0:0 5:0 30 3] [12 0] 1 0
f 5.267893882 _3_ RTR  --- 20 tcp 1040 [13a 3 0 800] ------- [0:0 5:0 29 5] [12 0] 1 0
r 5.278666347 _5_ AGT  --- 16 tcp 1040 [13a 5 3 800] ------- [0:0 5:0 29 5] [10 0] 2 0
s 5.278666347 _5_ AGT  --- 27 ack 40 [0 0 0 0] ------- [5:0 0:0 32 0] [10 0] 0 0
r 5.278666347 _5_ RTR  --- 27 ack 40 [0 0 0 0] ------- [5:0 0:0 32 0] [10 0] 0 0
s 5.278666347 _5_ RTR  --- 27 ack 40 [0 0 0 0] ------- [5:0 0:0 30 3] [10 0] 0 0
r 5.280612608 _0_ AGT  --- 21 ack 40 [13a 0 3 800] ------- [5:0 0:0 29 0] [8 0] 2 0
s 5.280612608 _0_ AGT  --- 28 tcp 1040 [0 0 0 0] ------- [0:0 5:0 32 0] [17 0] 0 0
r 5.280612608 _0_ RTR  --- 28 tcp 1040 [0 0 0 0] ------- [0:0 5:0 32 0] [17 0] 0 0
s 5.280612608 _0_ AGT  --- 29 tcp 1040 [0 0 0 0] ------- [0:0 5:0 32 0] [18 0] 0 0
r 5.280612608 _0_ RTR  --- 29 tcp 1040 [0 0 0 0] ------- [0:0 5:0 32 0] [18 0] 0 0
s 5.280612608 _0_ RTR  --- 28 tcp 1040 [0 0 0 0] ------- [0:0 5:0 30 3] [17 0] 0 0
s 5.280612608 _0_ RTR  --- 29 tcp 1040 [0 0 0 0] ------- [0:0 5:0 30 3] [18 0] 0 0
r 5.290458458 _3_ RTR  --- 22 tcp 1040 [13a 3 0 800] ------- [0:0 5:0 30 3] [13 0] 1 0
f 5.290458458 _3_ RTR  --- 22 tcp 1040 [13a 3 0 800] ------- [0:0 5:0 29 5] [13 0] 1 0
r 5.292534054 _3_ RTR  --- 27 ack 40 [13a 3 5 800] ------- [5:0 0:0 30 3] [10 0] 1 0
f 5.292534054 _3_ RTR  --- 27 ack 40 [13a 3 5 800] ------- [5:0 0:0 29 0] [10 0] 1 0
r 5.302610473 _3_ RTR  --- 23 tcp 1040 [13a 3 0 800] ------- [0:0 5:0 30 3] [14 0] 1 0
f 5.302610473 _3_ RTR  --- 23 tcp 1040 [13a 3 0 800] ------- [0:0 5:0 29 5] [14 0] 1 0
r 5.312535705 _5_ AGT  --- 19 tcp 1040 [13a 5 3 800] ------- [0:0 5:0 29 5] [11 0] 2 0
s 5.312535705 _5_ AGT  --- 30 ack 40 [0 0 0 0] ------- [5:0 0:0 32 0] [11 0] 0 0
r 5.312535705 _5_ RTR  --- 30 ack 40 [0 0 0 0] ------- [5:0 0:0 32 0] [11 0] 0 0
s 5.312535705 _5_ RTR  --- 30 ack 40 [0 0 0 0] ------- [5:0 0:0 30 3] [11 0] 0 0
r 5.314620937 _3_ RTR  --- 30 ack 40 [13a 3 5 800] ------- [5:0 0:0 30 3] [11 0] 1 0
f 5.314620937 _3_ RTR  --- 30 ack 40 [13a 3 5 800] ------- [5:0 0:0 29 0] [11 0] 1 0
r 5.316506787 _0_ AGT  --- 26 ack 40 [13a 0 3 800] ------- [5:0 0:0 29 0] [9 0] 2 0
s 5.316506787 _0_ AGT  --- 31 tcp 1040 [0 0 0 0] ------- [0:0 5:0 32 0] [19 0] 0 0
r 5.316506787 _0_ RTR  --- 31 tcp 1040 [0 0 0 0] ------- [0:0 5:0 32 0] [19 0] 0 0
s 5.316506787 _0_ AGT  --- 32 tcp 1040 [0 0 0 0] ------- [0:0 5:0 32 0] [20 0] 0 0
r 5.316506787 _0_ RTR  --- 32 tcp 1040 [0 0 0 0] ------- [0:0 5:0 32 0] [20 0] 0 0
s 5.316506787 _0_ RTR  --- 31 tcp 1040 [0 0 0 0] ------- [0:0 5:0 30 3] [19 0] 0 0
s 5.316506787 _0_ RTR  --- 32 tcp 1040 [0 0 0 0] ------- [0:0 5:0 30 3] [20 0] 0 0
r 5.326552637 _3_ RTR  --- 24 tcp 1040 [13a 3 0 800] ------- [0:0 5:0 30 3] [15 0] 1 0
f 5.326552637 _3_ RTR  --- 24 tcp 1040 [13a 3 0 800] ------- [0:0 5:0 29 5] [15 0] 1 0
r 5.336419104 _3_ RTR  --- 25 tcp 1040 [13a 3 0 800] ------- [0:0 5:0 30 3] [16 0] 1 0
f 5.336419104 _3_ RTR  --- 25 tcp 1040 [13a 3 0 800] ------- [0:0 5:0 29 5] [16 0] 1 0
r 5.346324336 _5_ AGT  --- 20 tcp 1040 [13a 5 3 800] ------- [0:0 5:0 29 5] [12 0] 2 0
s 5.346324336 _5_ AGT  --- 33 ack 40 [0 0 0 0] ------- [5:0 0:0 32 0] [12 0] 0 0
r 5.346324336 _5_ RTR  --- 33 ack 40 [0 0 0 0] ------- [5:0 0:0 32 0] [12 0] 0 0
s 5.346324336 _5_ RTR  --- 33 ack 40 [0 0 0 0] ------- [5:0 0:0 30 3] [12 0] 0 0
r 5.349316390 _3_ RTR  --- 33 ack 40 [13a 3 5 800] ------- [5:0 0:0 30 3] [12 0] 1 0
f 5.349316390 _3_ RTR  --- 33 ack 40 [13a 3 5 800] ------- [5:0 0:0 29 0] [12 0] 1 0
r 5.359512809 _3_ RTR  --- 28 tcp 1040 [13a 3 0 800] ------- [0:0 5:0 30 3] [17 0] 1 0
f 5.359512809 _3_ RTR  --- 28 tcp 1040 [13a 3 0 800] ------- [0:0 5:0 29 5] [17 0] 1 0
r 5.369598041 _5_ AGT  --- 22 tcp 1040 [13a 5 3 800] ------- [0:0 5:0 29 5] [13 0] 2 0
s 5.369598041 _5_ AGT  --- 34 ack 40 [0 0 0 0] ------- [5:0 0:0 32 0] [13 0] 0 0
r 5.369598041 _5_ RTR  --- 34 ack 40 [0 0 0 0] ------- [5:0 0:0 32 0] [13 0] 0 0
s 5.369598041 _5_ RTR  --- 34 ack 40 [0 0 0 0] ------- [5:0 0:0 30 3] [13 0] 0 0
r 5.371543273 _3_ RTR  --- 34 ack 40 [13a 3 5 800] ------- [5:0 0:0 30 3] [13 0] 1 0
f 5.371543273 _3_ RTR  --- 34 ack 40 [13a 3 5 800] ------- [5:0 0:0 29 0] [13 0] 1 0
r 5.373429123 _0_ AGT  --- 27 ack 40 [13a 0 3 800] ------- [5:0 0:0 29 0] [10 0] 2 0
s 5.373429123 _0_ AGT  --- 35 tcp 1040 [0 0 0 0] ------- [0:0 5:0 32 0] [21 0] 0 0
r 5.373429123 _0_ RTR  --- 35 tcp 1040 [0 0 0 0] ------- [0:0 5:0 32 0] [21 0] 0 0
s 5.373429123 _0_ AGT  --- 36 tcp 1040 [0 0 0 0] ------- [0:0 5:0 32 0] [22 0] 0 0
r 5.373429123 _0_ RTR  --- 36 tcp 1040 [0 0 0 0] ------- [0:0 5:0 32 0] [22 0] 0 0
s 5.373429123 _0_ RTR  --- 35 tcp 1040 [0 0 0 0] ------- [0:0 5:0 30 3] [21 0] 0 0
s 5.373429123 _0_ RTR  --- 36 tcp 1040 [0 0 0 0] ------- [0:0 5:0 30 3] [22 0] 0 0
r 5.383254972 _5_ AGT  --- 23 tcp 1040 [13a 5 3 800] ------- [0:0 5:0 29 5] [14 0] 2 0
s 5.383254972 _5_ AGT  --- 37 ack 40 [0 0 0 0] ------- [5:0 0:0 32 0] [14 0] 0 0
r 5.383254972 _5_ RTR  --- 37 ack 40 [0 0 0 0] ------- [5:0 0:0 32 0] [14 0] 0 0
s 5.383254972 _5_ RTR  --- 37 ack 40 [0 0 0 0] ------- [5:0 0:0 30 3] [14 0] 0 0
r 5.385221233 _0_ AGT  --- 30 ack 40 [13a 0 3 800] ------- [5:0 0:0 29 0] [11 0] 2 0
s 5.385221233 _0_ AGT  --- 38 tcp 1040 [0 0 0 0] ------- [0:0 5:0 32 0] [23 0] 0 0
r 5.385221233 _0_ RTR  --- 38 tcp 1040 [0 0 0 0] ------- [0:0 5:0 32 0] [23 0] 0 0
s 5.385221233 _0_ AGT  --- 39 tcp 1040 [0 0 0 0] ------- [0:0 5:0 32 0] [24 0] 0 0
r 5.385221233 _0_ RTR  --- 39 tcp 1040 [0 0 0 0] ------- [0:0 5:0 32 0] [24 0] 0 0
s 5.385221233 _0_ RTR  --- 38 tcp 1040 [0 0 0 0] ------- [0:0 5:0 30 3] [23 0] 0 0
s 5.385221233 _0_ RTR  --- 39 tcp 1040 [0 0 0 0] ------- [0:0 5:0 30 3] [24 0] 0 0
r 5.395207083 _3_ RTR  --- 29 tcp 1040 [13a 3 0 800] ------- [0:0 5:0 30 3] [18 0] 1 0
f 5.395207083 _3_ RTR  --- 29 tcp 1040 [13a 3 0 800] ------- [0:0 5:0 29 5] [18 0] 1 0
r 5.397102678 _3_ RTR  --- 37 ack 40 [13a 3 5 800] ------- [5:0 0:0 30 3] [14 0] 1 0
f 5.397102678 _3_ RTR  --- 37 ack 40 [13a 3 5 800] ------- [5:0 0:0 29 0] [14 0] 1 0
r 5.407067911 _5_ AGT  --- 24 tcp 1040 [13a 5 3 800] ------- [0:0 5:0 29 5] [15 0] 2 0
s 5.407067911 _5_ AGT  --- 40 ack 40 [0 0 0 0] ------- [5:0 0:0 32 0] [15 0] 0 0
r 5.407067911 _5_ RTR  --- 40 ack 40 [0 0 0 0] ------- [5:0 0:0 32 0] [15 0] 0 0
s 5.407067911 _5_ RTR  --- 40 ack 40 [0 0 0 0] ------- [5:0 0:0 30 3] [15 0] 0 0
r 5.409173143 _3_ RTR  --- 40 ack 40 [13a 3 5 800] ------- [5:0 0:0 30 3] [15 0] 1 0
f 5.409173143 _3_ RTR  --- 40 ack 40 [13a 3 5 800] ------- [5:0 0:0 29 0] [15 0] 1 0
r 5.419218375 _5_ AGT  --- 25 tcp 1040 [13a 5 3 800] ------- [0:0 5:0 29 5] [16 0] 2 0
s 5.419218375 _5_ AGT  --- 41 ack 40 [0 0 0 0] ------- [5:0 0:0 32 0] [16 0] 0 0
r 5.419218375 _5_ RTR  --- 41 ack 40 [0 0 0 0] ------- [5:0 0:0 32 0] [16 0] 0 0
s 5.419218375 _5_ RTR  --- 41 ack 40 [0 0 0 0] ------- [5:0 0:0 30 3] [16 0] 0 0
r 5.421143607 _3_ RTR  --- 41 ack 40 [13a 3 5 800] ------- [5:0 0:0 30 3] [16 0] 1 0
f 5.421143607 _3_ RTR  --- 41 ack 40 [13a 3 5 800] ------- [5:0 0:0 29 0] [16 0] 1 0
r 5.431040026 _3_ RTR  --- 31 tcp 1040 [13a 3 0 800] ------- [0:0 5:0 30 3] [19 0] 1 0
f 5.431040026 _3_ RTR  --- 31 tcp 1040 [13a 3 0 800] ------- [0:0 5:0 29 5] [19 0] 1 0
r 5.432885876 _0_ AGT  --- 33 ack 40 [13a 0 3 800] ------- [5:0 0:0 29 0] [12 0] 2 0
s 5.432885876 _0_ AGT  --- 42 tcp 1040 [0 0 0 0] ------- [0:0 5:0 32 0] [25 0] 0 0
r 5.432885876 _0_ RTR  --- 42 tcp 1040 [0 0 0 0] ------- [0:0 5:0 32 0] [25 0] 0 0
s 5.432885876 _0_ AGT  --- 43 tcp 1040 [0 0 0 0] ------- [0:0 5:0 32 0] [26 0] 0 0
r 5.432885876 _0_ RTR  --- 43 tcp 1040 [0 0 0 0] ------- [0:0 5:0 32 0] [26 0] 0 0
s 5.432885876 _0_ RTR  --- 42 tcp 1040 [0 0 0 0] ------- [0:0 5:0 30 3] [25 0] 0 0
s 5.432885876 _0_ RTR  --- 43 tcp 1040 [0 0 0 0] ------- [0:0 5:0 30 3] [26 0] 0 0
r 5.442811725 _5_ AGT  --- 28 tcp 1040 [13a 5 3 800] ------- [0:0 5:0 29 5] [17 0] 2 0
s 5.442811725 _5_ AGT  --- 44 ack 40 [0 0 0 0] ------- [5:0 0:0 32 0] [17 0] 0 0
r 5.442811725 _5_ RTR  --- 44 ack 40 [0 0 0 0] ------- [5:0 0:0 32 0] [17 0] 0 0
s 5.442811725 _5_ RTR  --- 44 ack 40 [0 0 0 0] ------- [5:0 0:0 30 3] [17 0] 0 0
r 5.444636958 _3_ RTR  --- 44 ack 40 [13a 3 5 800] ------- [5:0 0:0 30 3] [17 0] 1 0
f 5.444636958 _3_ RTR  --- 44 ack 40 [13a 3 5 800] ------- [5:0 0:0 29 0] [17 0] 1 0
r 5.446522808 _0_ AGT  --- 34 ack 40 [13a 0 3 800] ------- [5:0 0:0 29 0] [13 0] 2 0
s 5.446522808 _0_ AGT  --- 45 tcp 1040 [0 0 0 0] ------- [0:0 5:0 32 0] [27 0] 0 0
r 5.446522808 _0_ RTR  --- 45 tcp 1040 [0 0 0 0] ------- [0:0 5:0 32 0] [27 0] 0 0
s 5.446522808 _0_ AGT  --- 46 tcp 1040 [0 0 0 0] ------- [0:0 5:0 32 0] [28 0] 0 0
r 5.446522808 _0_ RTR  --- 46 tcp 1040 [0 0 0 0] ------- [0:0 5:0 32 0] [28 0] 0 0
s 5.446522808 _0_ RTR  --- 45 tcp 1040 [0 0 0 0] ------- [0:0 5:0 30 3] [27 0] 0 0
s 5.446522808 _0_ RTR  --- 46 tcp 1040 [0 0 0 0] ------- [0:0 5:0 30 3] [28 0] 0 0
r 5.456488658 _3_ RTR  --- 32 tcp 1040 [13a 3 0 800] ------- [0:0 5:0 30 3] [20 0] 1 0
f 5.456488658 _3_ RTR  --- 32 tcp 1040 [13a 3 0 800] ------- [0:0 5:0 29 5] [20 0] 1 0
r 5.466735124 _3_ RTR  --- 35 tcp 1040 [13a 3 0 800] ------- [0:0 5:0 30 3] [21 0] 1 0
f 5.466735124 _3_ RTR  --- 35 tcp 1040 [13a 3 0 800] ------- [0:0 5:0 29 5] [21 0] 1 0
r 5.476581591 _3_ RTR  --- 36 tcp 1040 [13a 3 0 800] ------- [0:0 5:0 30 3] [22 0] 1 0
f 5.476581591 _3_ RTR  --- 36 tcp 1040 [13a 3 0 800] ------- [0:0 5:0 29 5] [22 0] 1 0
r 5.487194058 _3_ RTR  --- 38 tcp 1040 [13a 3 0 800] ------- [0:0 5:0 30 3] [23 0] 1 0
f 5.487194058 _3_ RTR  --- 38 tcp 1040 [13a 3 0 800] ------- [0:0 5:0 29 5] [23 0] 1 0
r 5.497040524 _3_ RTR  --- 39 tcp 1040 [13a 3 0 800] ------- [0:0 5:0 30 3] [24 0] 1 0
f 5.497040524 _3_ RTR  --- 39 tcp 1040 [13a 3 0 800] ------- [0:0 5:0 29 5] [24 0] 1 0
r 5.506886991 _3_ RTR  --- 42 tcp 1040 [13a 3 0 800] ------- [0:0 5:0 30 3] [25 0] 1 0
f 5.506886991 _3_ RTR  --- 42 tcp 1040 [13a 3 0 800] ------- [0:0 5:0 29 5] [25 0] 1 0
r 5.516912223 _5_ AGT  --- 29 tcp 1040 [13a 5 3 800] ------- [0:0 5:0 29 5] [18 0] 2 0
s 5.516912223 _5_ AGT  --- 47 ack 40 [0 0 0 0] ------- [5:0 0:0 32 0] [18 0] 0 0
r 5.516912223 _5_ RTR  --- 47 ack 40 [0 0 0 0] ------- [5:0 0:0 32 0] [18 0] 0 0
s 5.516912223 _5_ RTR  --- 47 ack 40 [0 0 0 0] ------- [5:0 0:0 30 3] [18 0] 0 0
r 5.519118484 _0_ AGT  --- 37 ack 40 [13a 0 3 800] ------- [5:0 0:0 29 0] [14 0] 2 0
s 5.519118484 _0_ AGT  --- 48 tcp 1040 [0 0 0 0] ------- [0:0 5:0 32 0] [29 0] 0 0
r 5.519118484 _0_ RTR  --- 48 tcp 1040 [0 0 0 0] ------- [0:0 5:0 32 0] [29 0] 0 0
s 5.519118484 _0_ AGT  --- 49 tcp 1040 [0 0 0 0] ------- [0:0 5:0 32 0] [30 0] 0 0
r 5.519118484 _0_ RTR  --- 49 tcp 1040 [0 0 0 0] ------- [0:0 5:0 32 0] [30 0] 0 0
s 5.519118484 _0_ RTR  --- 48 tcp 1040 [0 0 0 0] ------- [0:0 5:0 30 3] [29 0] 0 0
s 5.519118484 _0_ RTR  --- 49 tcp 1040 [0 0 0 0] ------- [0:0 5:0 30 3] [30 0] 0 0
r 5.529124334 _3_ RTR  --- 43 tcp 1040 [13a 3 0 800] ------- [0:0 5:0 30 3] [26 0] 1 0
f 5.529124334 _3_ RTR  --- 43 tcp 1040 [13a 3 0 800] ------- [0:0 5:0 29 5] [26 0] 1 0
r 5.531059929 _3_ RTR  --- 47 ack 40 [13a 3 5 800] ------- [5:0 0:0 30 3] [18 0] 1 0
f 5.531059929 _3_ RTR  --- 47 ack 40 [13a 3 5 800] ------- [5:0 0:0 29 0] [18 0] 1 0
r 5.533085779 _0_ AGT  --- 40 ack 40 [13a 0 3 800] ------- [5:0 0:0 29 0] [15 0] 2 0
s 5.533085779 _0_ AGT  --- 50 tcp 1040 [0 0 0 0] ------- [0:0 5:0 32 0] [31 0] 0 0
r 5.533085779 _0_ RTR  --- 50 tcp 1040 [0 0 0 0] ------- [0:0 5:0 32 0] [31 0] 0 0
s 5.533085779 _0_ AGT  --- 51 tcp 1040 [0 0 0 0] ------- [0:0 5:0 32 0] [32 0] 0 0
r 5.533085779 _0_ RTR  --- 51 tcp 1040 [0 0 0 0] ------- [0:0 5:0 32 0] [32 0] 0 0
s 5.533085779 _0_ RTR  --- 50 tcp 1040 [0 0 0 0] ------- [0:0 5:0 30 3] [31 0] 0 0
s 5.533085779 _0_ RTR  --- 51 tcp 1040 [0 0 0 0] ------- [0:0 5:0 30 3] [32 0] 0 0
r 5.542991629 _3_ RTR  --- 45 tcp 1040 [13a 3 0 800] ------- [0:0 5:0 30 3] [27 0] 1 0
f 5.542991629 _3_ RTR  --- 45 tcp 1040 [13a 3 0 800] ------- [0:0 5:0 29 5] [27 0] 1 0
r 5.552998096 _3_ RTR  --- 46 tcp 1040 [13a 3 0 800] ------- [0:0 5:0 30 3] [28 0] 1 0
f 5.552998096 _3_ RTR  --- 46 tcp 1040 [13a 3 0 800] ------- [0:0 5:0 29 5] [28 0] 1 0
r 5.562964563 _3_ RTR  --- 48 tcp 1040 [13a 3 0 800] ------- [0:0 5:0 30 3] [29 0] 1 0
f 5.562964563 _3_ RTR  --- 48 tcp 1040 [13a 3 0 800] ------- [0:0 5:0 29 5] [29 0] 1 0
r 5.564930413 _0_ AGT  --- 41 ack 40 [13a 0 3 800] ------- [5:0 0:0 29 0] [16 0] 2 0
s 5.564930413 _0_ AGT  --- 52 tcp 1040 [0 0 0 0] ------- [0:0 5:0 32 0] [33 0] 0 0
r 5.564930413 _0_ RTR  --- 52 tcp 1040 [0 0 0 0] ------- [0:0 5:0 32 0] [33 0] 0 0
s 5.564930413 _0_ AGT  --- 53 tcp 1040 [0 0 0 0] ------- [0:0 5:0 32 0] [34 0] 0 0
r 5.564930413 _0_ RTR  --- 53 tcp 1040 [0 0 0 0] ------- [0:0 5:0 32 0] [34 0] 0 0
s 5.564930413 _0_ RTR  --- 52 tcp 1040 [0 0 0 0] ------- [0:0 5:0 30 3] [33 0] 0 0
s 5.564930413 _0_ RTR  --- 53 tcp 1040 [0 0 0 0] ------- [0:0 5:0 30 3] [34 0] 0 0
r 5.574756262 _5_ AGT  --- 31 tcp 1040 [13a 5 3 800] ------- [0:0 5:0 29 5] [19 0] 2 0
s 5.574756262 _5_ AGT  --- 54 ack 40 [0 0 0 0] ------- [5:0 0:0 32 0] [19 0] 0 0
r 5.574756262 _5_ RTR  --- 54 ack 40 [0 0 0 0] ------- [5:0 0:0 32 0] [19 0] 0 0
s 5.574756262 _5_ RTR  --- 54 ack 40 [0 0 0 0] ------- [5:0 0:0 30 3] [19 0] 0 0
r 5.576582522 _0_ AGT  --- 44 ack 40 [13a 0 3 800] ------- [5:0 0:0 29 0] [17 0] 2 0
s 5.576582522 _0_ AGT  --- 55 tcp 1040 [0 0 0 0] ------- [0:0 5:0 32 0] [35 0] 0 0
r 5.576582522 _0_ RTR  --- 55 tcp 1040 [0 0 0 0] ------- [0:0 5:0 32 0] [35 0] 0 0
s 5.576582522 _0_ AGT  --- 56 tcp 1040 [0 0 0 0] ------- [0:0 5:0 32 0] [36 0] 0 0
r 5.576582522 _0_ RTR  --- 56 tcp 1040 [0 0 0 0] ------- [0:0 5:0 32 0] [36 0] 0 0
s 5.576582522 _0_ RTR  --- 55 tcp 1040 [0 0 0 0] ------- [0:0 5:0 30 3] [35 0] 0 0
s 5.576582522 _0_ RTR  --- 56 tcp 1040 [0 0 0 0] ------- [0:0 5:0 30 3] [36 0] 0 0
r 5.586508372 _3_ RTR  --- 49 tcp 1040 [13a 3 0 800] ------- [0:0 5:0 30 3] [30 0] 1 0
f 5.586508372 _3_ RTR  --- 49 tcp 1040 [13a 3 0 800] ------- [0:0 5:0 29 5] [30 0] 1 0
r 5.588483968 _3_ RTR  --- 54 ack 40 [13a 3 5 800] ------- [5:0 0:0 30 3] [19 0] 1 0
f 5.588483968 _3_ RTR  --- 54 ack 40 [13a 3 5 800] ------- [5:0 0:0 29 0] [19 0] 1 0
r 5.598629200 _5_ AGT  --- 32 tcp 1040 [13a 5 3 800] ------- [0:0 5:0 29 5] [20 0] 2 0
s 5.598629200 _5_ AGT  --- 57 ack 40 [0 0 0 0] ------- [5:0 0:0 32 0] [20 0] 0 0
r 5.598629200 _5_ RTR  --- 57 ack 40 [0 0 0 0] ------- [5:0 0:0 32 0] [20 0] 0 0
s 5.598629200 _5_ RTR  --- 57 ack 40 [0 0 0 0] ------- [5:0 0:0 30 3] [20 0] 0 0
r 5.600714432 _3_ RTR  --- 57 ack 40 [13a 3 5 800] ------- [5:0 0:0 30 3] [20 0] 1 0