n -t * -s 0  -x 5 -y 75 -Z 0 -z 50  -v circle -c black
n -t * -s 1  -x 460 -y 400 -Z 0 -z 50  -v circle -c black
n -t * -s 2  -x 250 -y 280 -Z 0 -z 50  -v circle -c black
V -t * -v 1.0a5 -a 0
W -t * -x 500 -y 500
A -t * -n 1 -p 0 -o 0x7fffffff -c 30 -a 1
A -t * -h 1 -m 1073741823 -s 0
c -t * -i 1 -n Red
c -t * -i 2 -n Blue
+ -t 2.000000000 -s 0 -d -1 -p tcp -e 40 -c 2 -a 0 -i 0 -k AGT 
- -t 2.000000000 -s 0 -d -1 -p tcp -e 40 -c 2 -a 0 -i 0 -k AGT
h -t 2.000000000 -s 0 -d -1 -p tcp -e 40 -c 2 -a 0 -i 0 -k AGT
+ -t 2.000000000 -s 0 -d -1 -p AODV -e 48 -c 2 -a 0 -i 0 -k RTR 
- -t 2.000000000 -s 0 -d -1 -p AODV -e 48 -c 2 -a 0 -i 0 -k RTR
h -t 2.000000000 -s 0 -d -1 -p AODV -e 48 -c 2 -a 0 -i 0 -k RTR
+ -t 4.000000000 -s 0 -d -1 -p AODV -e 48 -c 2 -a 0 -i 0 -k RTR 
- -t 4.000000000 -s 0 -d -1 -p AODV -e 48 -c 2 -a 0 -i 0 -k RTR
h -t 4.000000000 -s 0 -d -1 -p AODV -e 48 -c 2 -a 0 -i 0 -k RTR
+ -t 5.000000000 -s 0 -d -1 -p tcp -e 40 -c 2 -a 0 -i 1 -k AGT 
- -t 5.000000000 -s 0 -d -1 -p tcp -e 40 -c 2 -a 0 -i 1 -k AGT
h -t 5.000000000 -s 0 -d -1 -p tcp -e 40 -c 2 -a 0 -i 1 -k AGT
+ -t 8.000000000 -s 0 -d -1 -p AODV -e 48 -c 2 -a 0 -i 0 -k RTR 
- -t 8.000000000 -s 0 -d -1 -p AODV -e 48 -c 2 -a 0 -i 0 -k RTR
h -t 8.000000000 -s 0 -d -1 -p AODV -e 48 -c 2 -a 0 -i 0 -k RTR
n -t 10.000000 -s 0 -x 5.000000 -y 75.000000 -U 9.984256 -V 0.560913 -T 44.570169
+ -t 11.000000000 -s 0 -d -1 -p tcp -e 40 -c 2 -a 0 -i 2 -k AGT 
- -t 11.000000000 -s 0 -d -1 -p tcp -e 40 -c 2 -a 0 -i 2 -k AGT
h -t 11.000000000 -s 0 -d -1 -p tcp -e 40 -c 2 -a 0 -i 2 -k AGT
+ -t 13.500000000 -s 0 -d -1 -p AODV -e 48 -c 2 -a 0 -i 0 -k RTR 
- -t 13.500000000 -s 0 -d -1 -p AODV -e 48 -c 2 -a 0 -i 0 -k RTR
h -t 13.500000000 -s 0 -d -1 -p AODV -e 48 -c 2 -a 0 -i 0 -k RTR
n -t 15.000000 -s 1 -x 460.000000 -y 400.000000 -U -4.964941 -V -0.591064 -T 84.593144
d -t 21.000000000 -s 0 -d -1 -p tcp -e 40 -c 2 -a 0 -i 0 -k RTR
d -t 21.000000000 -s 0 -d -1 -p tcp -e 40 -c 2 -a 0 -i 1 -k RTR
d -t 21.000000000 -s 0 -d -1 -p tcp -e 40 -c 2 -a 0 -i 2 -k RTR
+ -t 23.000000000 -s 0 -d -1 -p tcp -e 40 -c 2 -a 0 -i 3 -k AGT 
- -t 23.000000000 -s 0 -d -1 -p tcp -e 40 -c 2 -a 0 -i 3 -k AGT
h -t 23.000000000 -s 0 -d -1 -p tcp -e 40 -c 2 -a 0 -i 3 -k AGT
+ -t 31.000000000 -s 0 -d -1 -p AODV -e 48 -c 2 -a 0 -i 0 -k RTR 
- -t 31.000000000 -s 0 -d -1 -p AODV -e 48 -c 2 -a 0 -i 0 -k RTR
h -t 31.000000000 -s 0 -d -1 -p AODV -e 48 -c 2 -a 0 -i 0 -k RTR
r -t 31.001308655 -s 2 -d -1 -p AODV -e 48 -c 2 -a 0 -i 0 -k RTR
+ -t 31.009671890 -s 2 -d -1 -p AODV -e 48 -c 2 -a 0 -i 0 -k RTR 
- -t 31.009671890 -s 2 -d -1 -p AODV -e 48 -c 2 -a 0 -i 0 -k RTR
h -t 31.009671890 -s 2 -d -1 -p AODV -e 48 -c 2 -a 0 -i 0 -k RTR
r -t 31.010660460 -s 1 -d -1 -p AODV -e 48 -c 2 -a 0 -i 0 -k RTR
+ -t 31.010660460 -s 1 -d 2 -p AODV -e 44 -c 2 -a 0 -i 0 -k RTR 
- -t 31.010660460 -s 1 -d 2 -p AODV -e 44 -c 2 -a 0 -i 0 -k RTR
h -t 31.010660460 -s 1 -d 2 -p AODV -e 44 -c 2 -a 0 -i 0 -k RTR
r -t 31.010660545 -s 0 -d -1 -p AODV -e 48 -c 2 -a 0 -i 0 -k RTR
+ -t 31.015462451 -s 2 -d 0 -p AODV -e 44 -c 2 -a 0 -i 0 -k RTR 
- -t 31.015462451 -s 2 -d 0 -p AODV -e 44 -c 2 -a 0 -i 0 -k RTR
h -t 31.015462451 -s 2 -d 0 -p AODV -e 44 -c 2 -a 0 -i 0 -k RTR
+ -t 31.020594033 -s 0 -d 2 -p tcp -e 40 -c 2 -a 0 -i 3 -k RTR 
- -t 31.020594033 -s 0 -d 2 -p tcp -e 40 -c 2 -a 0 -i 3 -k RTR
h -t 31.020594033 -s 0 -d 2 -p tcp -e 40 -c 2 -a 0 -i 3 -k RTR
+ -t 31.022539997 -s 2 -d 1 -p tcp -e 40 -c 2 -a 0 -i 3 -k RTR 
- -t 31.022539997 -s 2 -d 1 -p tcp -e 40 -c 2 -a 0 -i 3 -k RTR
h -t 31.022539997 -s 2 -d 1 -p tcp -e 40 -c 2 -a 0 -i 3 -k RTR
r -t 31.024605706 -s 1 -d 1 -p tcp -e 40 -c 2 -a 0 -i 3 -k AGT
+ -t 31.024605706 -s 1 -d -1 -p ack -e 40 -c 2 -a 0 -i 4 -k AGT 
- -t 31.024605706 -s 1 -d -1 -p ack -e 40 -c 2 -a 0 -i 4 -k AGT
h -t 31.024605706 -s 1 -d -1 -p ack -e 40 -c 2 -a 0 -i 4 -k AGT
+ -t 31.024605706 -s 1 -d 2 -p ack -e 40 -c 2 -a 0 -i 4 -k RTR 
- -t 31.024605706 -s 1 -d 2 -p ack -e 40 -c 2 -a 0 -i 4 -k RTR
h -t 31.024605706 -s 1 -d 2 -p ack -e 40 -c 2 -a 0 -i 4 -k RTR
+ -t 31.026611416 -s 2 -d 0 -p ack -e 40 -c 2 -a 0 -i 4 -k RTR 
- -t 31.026611416 -s 2 -d 0 -p ack -e 40 -c 2 -a 0 -i 4 -k RTR
h -t 31.026611416 -s 2 -d 0 -p ack -e 40 -c 2 -a 0 -i 4 -k RTR
r -t 31.028857380 -s 0 -d 0 -p ack -e 40 -c 2 -a 0 -i 4 -k AGT
+ -t 31.028857380 -s 0 -d -1 -p tcp -e 1040 -c 2 -a 0 -i 5 -k AGT 
- -t 31.028857380 -s 0 -d -1 -p tcp -e 1040 -c 2 -a 0 -i 5 -k AGT
h -t 31.028857380 -s 0 -d -1 -p tcp -e 1040 -c 2 -a 0 -i 5 -k AGT
+ -t 31.028857380 -s 0 -d 2 -p tcp -e 1040 -c 2 -a 0 -i 5 -k RTR 
- -t 31.028857380 -s 0 -d 2 -p tcp -e 1040 -c 2 -a 0 -i 5 -k RTR
h -t 31.028857380 -s 0 -d 2 -p tcp -e 1040 -c 2 -a 0 -i 5 -k RTR
+ -t 31.039223343 -s 2 -d 1 -p tcp -e 1040 -c 2 -a 0 -i 5 -k RTR 
- -t 31.039223343 -s 2 -d 1 -p tcp -e 1040 -c 2 -a 0 -i 5 -k RTR
h -t 31.039223343 -s 2 -d 1 -p tcp -e 1040 -c 2 -a 0 -i 5 -k RTR
r -t 31.049089052 -s 1 -d 1 -p tcp -e 1040 -c 2 -a 0 -i 5 -k AGT
+ -t 31.049089052 -s 1 -d -1 -p ack -e 40 -c 2 -a 0 -i 6 -k AGT 
- -t 31.049089052 -s 1 -d -1 -p ack -e 40 -c 2 -a 0 -i 6 -k AGT
h -t 31.049089052 -s 1 -d -1 -p ack -e 40 -c 2 -a 0 -i 6 -k AGT
+ -t 31.049089052 -s 1 -d 2 -p ack -e 40 -c 2 -a 0 -i 6 -k RTR 
- -t 31.049089052 -s 1 -d 2 -p ack -e 40 -c 2 -a 0 -i 6 -k RTR
h -t 31.049089052 -s 1 -d 2 -p ack -e 40 -c 2 -a 0 -i 6 -k RTR
+ -t 31.051274761 -s 2 -d 0 -p ack -e 40 -c 2 -a 0 -i 6 -k RTR 
- -t 31.051274761 -s 2 -d 0 -p ack -e 40 -c 2 -a 0 -i 6 -k RTR
h -t 31.051274761 -s 2 -d 0 -p ack -e 40 -c 2 -a 0 -i 6 -k RTR
r -t 31.053180724 -s 0 -d 0 -p ack -e 40 -c 2 -a 0 -i 6 -k AGT
+ -t 31.053180724 -s 0 -d -1 -p tcp -e 1040 -c 2 -a 0 -i 7 -k AGT 
- -t 31.053180724 -s 0 -d -1 -p tcp -e 1040 -c 2 -a 0 -i 7 -k AGT
h -t 31.053180724 -s 0 -d -1 -p tcp -e 1040 -c 2 -a 0 -i 7 -k AGT
+ -t 31.053180724 -s 0 -d -1 -p tcp -e 1040 -c 2 -a 0 -i 8 -k AGT 
- -t 31.053180724 -s 0 -d -1 -p tcp -e 1040 -c 2 -a 0 -i 8 -k AGT
h -t 31.053180724 -s 0 -d -1 -p tcp -e 1040 -c 2 -a 0 -i 8 -k AGT
+ -t 31.053180724 -s 0 -d 2 -p tcp -e 1040 -c 2 -a 0 -i 7 -k RTR 
- -t 31.053180724 -s 0 -d 2 -p tcp -e 1040 -c 2 -a 0 -i 7 -k RTR
h -t 31.053180724 -s 0 -d 2 -p tcp -e 1040 -c 2 -a 0 -i 7 -k RTR
+ -t 31.053180724 -s 0 -d 2 -p tcp -e 1040 -c 2 -a 0 -i 8 -k RTR 
- -t 31.053180724 -s 0 -d 2 -p tcp -e 1040 -c 2 -a 0 -i 8 -k RTR
h -t 31.053180724 -s 0 -d 2 -p tcp -e 1040 -c 2 -a 0 -i 8 -k RTR
+ -t 31.063266687 -s 2 -d 1 -p tcp -e 1040 -c 2 -a 0 -i 7 -k RTR 
- -t 31.063266687 -s 2 -d 1 -p tcp -e 1040 -c 2 -a 0 -i 7 -k RTR
h -t 31.063266687 -s 2 -d 1 -p tcp -e 1040 -c 2 -a 0 -i 7 -k RTR
r -t 31.073192395 -s 1 -d 1 -p tcp -e 1040 -c 2 -a 0 -i 7 -k AGT
+ -t 31.073192395 -s 1 -d -1 -p ack -e 40 -c 2 -a 0 -i 9 -k AGT 
- -t 31.073192395 -s 1 -d -1 -p ack -e 40 -c 2 -a 0 -i 9 -k AGT
h -t 31.073192395 -s 1 -d -1 -p ack -e 40 -c 2 -a 0 -i 9 -k AGT
+ -t 31.073192395 -s 1 -d 2 -p ack -e 40 -c 2 -a 0 -i 9 -k RTR 
- -t 31.073192395 -s 1 -d 2 -p ack -e 40 -c 2 -a 0 -i 9 -k RTR
h -t 31.073192395 -s 1 -d 2 -p ack -e 40 -c 2 -a 0 -i 9 -k RTR
+ -t 31.075198103 -s 2 -d 0 -p ack -e 40 -c 2 -a 0 -i 9 -k RTR 
- -t 31.075198103 -s 2 -d 0 -p ack -e 40 -c 2 -a 0 -i 9 -k RTR
h -t 31.075198103 -s 2 -d 0 -p ack -e 40 -c 2 -a 0 -i 9 -k RTR
r -t 31.077084065 -s 0 -d 0 -p ack -e 40 -c 2 -a 0 -i 9 -k AGT
+ -t 31.077084065 -s 0 -d -1 -p tcp -e 1040 -c 2 -a 0 -i 10 -k AGT 
- -t 31.077084065 -s 0 -d -1 -p tcp -e 1040 -c 2 -a 0 -i 10 -k AGT
h -t 31.077084065 -s 0 -d -1 -p tcp -e 1040 -c 2 -a 0 -i 10 -k AGT
+ -t 31.077084065 -s 0 -d 2 -p tcp -e 1040 -c 2 -a 0 -i 10 -k RTR 
- -t 31.077084065 -s 0 -d 2 -p tcp -e 1040 -c 2 -a 0 -i 10 -k RTR
h -t 31.077084065 -s 0 -d 2 -p tcp -e 1040 -c 2 -a 0 -i 10 -k RTR
+ -t 31.087350027 -s 2 -d 1 -p tcp -e 1040 -c 2 -a 0 -i 8 -k RTR 
- -t 31.087350027 -s 2 -d 1 -p tcp -e 1040 -c 2 -a 0 -i 8 -k RTR
h -t 31.087350027 -s 2 -d 1 -p tcp -e 1040 -c 2 -a 0 -i 8 -k RTR
+ -t 31.097236644 -s 2 -d 1 -p tcp -e 1040 -c 2 -a 0 -i 10 -k RTR 
- -t 31.097236644 -s 2 -d 1 -p tcp -e 1040 -c 2 -a 0 -i 10 -k RTR
h -t 31.097236644 -s 2 -d 1 -p tcp -e 1040 -c 2 -a 0 -i 10 -k RTR
r -t 31.107162350 -s 1 -d 1 -p tcp -e 1040 -c 2 -a 0 -i 8 -k AGT
+ -t 31.107162350 -s 1 -d -1 -p ack -e 40 -c 2 -a 0 -i 11 -k AGT 
- -t 31.107162350 -s 1 -d -1 -p ack -e 40 -c 2 -a 0 -i 11 -k AGT
h -t 31.107162350 -s 1 -d -1 -p ack -e 40 -c 2 -a 0 -i 11 -k AGT
+ -t 31.107162350 -s 1 -d 2 -p ack -e 40 -c 2 -a 0 -i 11 -k RTR 
- -t 31.107162350 -s 1 -d 2 -p ack -e 40 -c 2 -a 0 -i 11 -k RTR
h -t 31.107162350 -s 1 -d 2 -p ack -e 40 -c 2 -a 0 -i 11 -k RTR
+ -t 31.109048057 -s 2 -d 0 -p ack -e 40 -c 2 -a 0 -i 11 -k RTR 
- -t 31.109048057 -s 2 -d 0 -p ack -e 40 -c 2 -a 0 -i 11 -k RTR
h -t 31.109048057 -s 2 -d 0 -p ack -e 40 -c 2 -a 0 -i 11 -k RTR
r -t 31.119173763 -s 1 -d 1 -p tcp -e 1040 -c 2 -a 0 -i 10 -k AGT
+ -t 31.119173763 -s 1 -d -1 -p ack -e 40 -c 2 -a 0 -i 12 -k AGT 
- -t 31.119173763 -s 1 -d -1 -p ack -e 40 -c 2 -a 0 -i 12 -k AGT
h -t 31.119173763 -s 1 -d -1 -p ack -e 40 -c 2 -a 0 -i 12 -k AGT
+ -t 31.119173763 -s 1 -d 2 -p ack -e 40 -c 2 -a 0 -i 12 -k RTR 
- -t 31.119173763 -s 1 -d 2 -p ack -e 40 -c 2 -a 0 -i 12 -k RTR
h -t 31.119173763 -s 1 -d 2 -p ack -e 40 -c 2 -a 0 -i 12 -k RTR
+ -t 31.121219468 -s 2 -d 0 -p ack -e 40 -c 2 -a 0 -i 12 -k RTR 
- -t 31.121219468 -s 2 -d 0 -p ack -e 40 -c 2 -a 0 -i 12 -k RTR
h -t 31.121219468 -s 2 -d 0 -p ack -e 40 -c 2 -a 0 -i 12 -k RTR
r -t 31.123125430 -s 0 -d 0 -p ack -e 40 -c 2 -a 0 -i 11 -k AGT
+ -t 31.123125430 -s 0 -d -1 -p tcp -e 1040 -c 2 -a 0 -i 13 -k AGT 
- -t 31.123125430 -s 0 -d -1 -p tcp -e 1040 -c 2 -a 0 -i 13 -k AGT
h -t 31.123125430 -s 0 -d -1 -p tcp -e 1040 -c 2 -a 0 -i 13 -k AGT
+ -t 31.123125430 -s 0 -d 2 -p tcp -e 1040 -c 2 -a 0 -i 13 -k RTR 
- -t 31.123125430 -s 0 -d 2 -p tcp -e 1040 -c 2 -a 0 -i 13 -k RTR
h -t 31.123125430 -s 0 -d 2 -p tcp -e 1040 -c 2 -a 0 -i 13 -k RTR
+ -t 31.133231391 -s 2 -d 1 -p tcp -e 1040 -c 2 -a 0 -i 13 -k RTR 
- -t 31.133231391 -s 2 -d 1 -p tcp -e 1040 -c 2 -a 0 -i 13 -k RTR
h -t 31.133231391 -s 2 -d 1 -p tcp -e 1040 -c 2 -a 0 -i 13 -k RTR
r -t 31.135277352 -s 0 -d 0 -p ack -e 40 -c 2 -a 0 -i 12 -k AGT
+ -t 31.135277352 -s 0 -d -1 -p tcp -e 1040 -c 2 -a 0 -i 14 -k AGT 
- -t 31.135277352 -s 0 -d -1 -p tcp -e 1040 -c 2 -a 0 -i 14 -k AGT
h -t 31.135277352 -s 0 -d -1 -p tcp -e 1040 -c 2 -a 0 -i 14 -k AGT
+ -t 31.135277352 -s 0 -d -1 -p tcp -e 1040 -c 2 -a 0 -i 15 -k AGT 
- -t 31.135277352 -s 0 -d -1 -p tcp -e 1040 -c 2 -a 0 -i 15 -k AGT
h -t 31.135277352 -s 0 -d -1 -p tcp -e 1040 -c 2 -a 0 -i 15 -k AGT
+ -t 31.135277352 -s 0 -d 2 -p tcp -e 1040 -c 2 -a 0 -i 14 -k RTR 
- -t 31.135277352 -s 0 -d 2 -p tcp -e 1040 -c 2 -a 0 -i 14 -k RTR
h -t 31.135277352 -s 0 -d 2 -p tcp -e 1040 -c 2 -a 0 -i 14 -k RTR
+ -t 31.135277352 -s 0 -d 2 -p tcp -e 1040 -c 2 -a 0 -i 15 -k RTR 
- -t 31.135277352 -s 0 -d 2 -p tcp -e 1040 -c 2 -a 0 -i 15 -k RTR
h -t 31.135277352 -s 0 -d 2 -p tcp -e 1040 -c 2 -a 0 -i 15 -k RTR
+ -t 31.145323314 -s 2 -d 1 -p tcp -e 1040 -c 2 -a 0 -i 14 -k RTR 
- -t 31.145323314 -s 2 -d 1 -p tcp -e 1040 -c 2 -a 0 -i 14 -k RTR
h -t 31.145323314 -s 2 -d 1 -p tcp -e 1040 -c 2 -a 0 -i 14 -k RTR
r -t 31.155269018 -s 1 -d 1 -p tcp -e 1040 -c 2 -a 0 -i 13 -k AGT
+ -t 31.155269018 -s 1 -d -1 -p ack -e 40 -c 2 -a 0 -i 16 -k AGT 
- -t 31.155269018 -s 1 -d -1 -p ack -e 40 -c 2 -a 0 -i 16 -k AGT
h -t 31.155269018 -s 1 -d -1 -p ack -e 40 -c 2 -a 0 -i 16 -k AGT
+ -t 31.155269018 -s 1 -d 2 -p ack -e 40 -c 2 -a 0 -i 16 -k RTR 
- -t 31.155269018 -s 1 -d 2 -p ack -e 40 -c 2 -a 0 -i 16 -k RTR
h -t 31.155269018 -s 1 -d 2 -p ack -e 40 -c 2 -a 0 -i 16 -k RTR
r -t 31.165175290 -s 1 -d 1 -p tcp -e 1040 -c 2 -a 0 -i 14 -k AGT
+ -t 31.165175290 -s 1 -d -1 -p ack -e 40 -c 2 -a 0 -i 17 -k AGT 
- -t 31.165175290 -s 1 -d -1 -p ack -e 40 -c 2 -a 0 -i 17 -k AGT
h -t 31.165175290 -s 1 -d -1 -p ack -e 40 -c 2 -a 0 -i 17 -k AGT
+ -t 31.165175290 -s 1 -d 2 -p ack -e 40 -c 2 -a 0 -i 17 -k RTR 
- -t 31.165175290 -s 1 -d 2 -p ack -e 40 -c 2 -a 0 -i 17 -k RTR
h -t 31.165175290 -s 1 -d 2 -p ack -e 40 -c 2 -a 0 -i 17 -k RTR
+ -t 31.167140994 -s 2 -d 0 -p ack -e 40 -c 2 -a 0 -i 16 -k RTR 
- -t 31.167140994 -s 2 -d 0 -p ack -e 40 -c 2 -a 0 -i 16 -k RTR
h -t 31.167140994 -s 2 -d 0 -p ack -e 40 -c 2 -a 0 -i 16 -k RTR
+ -t 31.168967266 -s 2 -d 0 -p ack -e 40 -c 2 -a 0 -i 17 -k RTR 
- -t 31.168967266 -s 2 -d 0 -p ack -e 40 -c 2 -a 0 -i 17 -k RTR
h -t 31.168967266 -s 2 -d 0 -p ack -e 40 -c 2 -a 0 -i 17 -k RTR
+ -t 31.178903807 -s 2 -d 1 -p tcp -e 1040 -c 2 -a 0 -i 15 -k RTR 
- -t 31.178903807 -s 2 -d 1 -p tcp -e 1040 -c 2 -a 0 -i 15 -k RTR
h -t 31.178903807 -s 2 -d 1 -p tcp -e 1040 -c 2 -a 0 -i 15 -k RTR
r -t 31.180809768 -s 0 -d 0 -p ack -e 40 -c 2 -a 0 -i 16 -k AGT
+ -t 31.180809768 -s 0 -d -1 -p tcp -e 1040 -c 2 -a 0 -i 18 -k AGT 
- -t 31.180809768 -s 0 -d -1 -p tcp -e 1040 -c 2 -a 0 -i 18 -k AGT
h -t 31.180809768 -s 0 -d -1 -p tcp -e 1040 -c 2 -a 0 -i 18 -k AGT
+ -t 31.180809768 -s 0 -d 2 -p tcp -e 1040 -c 2 -a 0 -i 18 -k RTR 
- -t 31.180809768 -s 0 -d 2 -p tcp -e 1040 -c 2 -a 0 -i 18 -k RTR
h -t 31.180809768 -s 0 -d 2 -p tcp -e 1040 -c 2 -a 0 -i 18 -k RTR
+ -t 31.190875728 -s 2 -d 1 -p tcp -e 1040 -c 2 -a 0 -i 18 -k RTR 
- -t 31.190875728 -s 2 -d 1 -p tcp -e 1040 -c 2 -a 0 -i 18 -k RTR
h -t 31.190875728 -s 2 -d 1 -p tcp -e 1040 -c 2 -a 0 -i 18 -k RTR
r -t 31.192761687 -s 0 -d 0 -p ack -e 40 -c 2 -a 0 -i 17 -k AGT
+ -t 31.192761687 -s 0 -d -1 -p tcp -e 1040 -c 2 -a 0 -i 19 -k AGT 
- -t 31.192761687 -s 0 -d -1 -p tcp -e 1040 -c 2 -a 0 -i 19 -k AGT
h -t 31.192761687 -s 0 -d -1 -p tcp -e 1040 -c 2 -a 0 -i 19 -k AGT
+ -t 31.192761687 -s 0 -d 2 -p tcp -e 1040 -c 2 -a 0 -i 19 -k RTR 
- -t 31.192761687 -s 0 -d 2 -p tcp -e 1040 -c 2 -a 0 -i 19 -k RTR
h -t 31.192761687 -s 0 -d 2 -p tcp -e 1040 -c 2 -a 0 -i 19 -k RTR
r -t 31.202828043 -s 1 -d 1 -p tcp -e 1040 -c 2 -a 0 -i 15 -k AGT
+ -t 31.202828043 -s 1 -d -1 -p ack -e 40 -c 2 -a 0 -i 20 -k AGT 
- -t 31.202828043 -s 1 -d -1 -p ack -e 40 -c 2 -a 0 -i 20 -k AGT
h -t 31.202828043 -s 1 -d -1 -p ack -e 40 -c 2 -a 0 -i 20 -k AGT
+ -t 31.202828043 -s 1 -d 2 -p ack -e 40 -c 2 -a 0 -i 20 -k RTR 
- -t 31.202828043 -s 1 -d 2 -p ack -e 40 -c 2 -a 0 -i 20 -k RTR
h -t 31.202828043 -s 1 -d 2 -p ack -e 40 -c 2 -a 0 -i 20 -k RTR
+ -t 31.204773746 -s 2 -d 0 -p ack -e 40 -c 2 -a 0 -i 20 -k RTR 
- -t 31.204773746 -s 2 -d 0 -p ack -e 40 -c 2 -a 0 -i 20 -k RTR
h -t 31.204773746 -s 2 -d 0 -p ack -e 40 -c 2 -a 0 -i 20 -k RTR
r -t 31.214619448 -s 1 -d 1 -p tcp -e 1040 -c 2 -a 0 -i 18 -k AGT
+ -t 31.214619448 -s 1 -d -1 -p ack -e 40 -c 2 -a 0 -i 21 -k AGT 
- -t 31.214619448 -s 1 -d -1 -p ack -e 40 -c 2 -a 0 -i 21 -k AGT
h -t 31.214619448 -s 1 -d -1 -p ack -e 40 -c 2 -a 0 -i 21 -k AGT
+ -t 31.214619448 -s 1 -d 2 -p ack -e 40 -c 2 -a 0 -i 21 -k RTR 
- -t 31.214619448 -s 1 -d 2 -p ack -e 40 -c 2 -a 0 -i 21 -k RTR
h -t 31.214619448 -s 1 -d 2 -p ack -e 40 -c 2 -a 0 -i 21 -k RTR
r -t 31.216485974 -s 0 -d 0 -p ack -e 40 -c 2 -a 0 -i 20 -k AGT
+ -t 31.216485974 -s 0 -d -1 -p tcp -e 1040 -c 2 -a 0 -i 22 -k AGT 
- -t 31.216485974 -s 0 -d -1 -p tcp -e 1040 -c 2 -a 0 -i 22 -k AGT
h -t 31.216485974 -s 0 -d -1 -p tcp -e 1040 -c 2 -a 0 -i 22 -k AGT
+ -t 31.216485974 -s 0 -d -1 -p tcp -e 1040 -c 2 -a 0 -i 23 -k AGT 
- -t 31.216485974 -s 0 -d -1 -p tcp -e 1040 -c 2 -a 0 -i 23 -k AGT
h -t 31.216485974 -s 0 -d -1 -p tcp -e 1040 -c 2 -a 0 -i 23 -k AGT
+ -t 31.216485974 -s 0 -d 2 -p tcp -e 1040 -c 2 -a 0 -i 22 -k RTR 
- -t 31.216485974 -s 0 -d 2 -p tcp -e 1040 -c 2 -a 0 -i 22 -k RTR
h -t 31.216485974 -s 0 -d 2 -p tcp -e 1040 -c 2 -a 0 -i 22 -k RTR
+ -t 31.216485974 -s 0 -d 2 -p tcp -e 1040 -c 2 -a 0 -i 23 -k RTR 
- -t 31.216485974 -s 0 -d 2 -p tcp -e 1040 -c 2 -a 0 -i 23 -k RTR
h -t 31.216485974 -s 0 -d 2 -p tcp -e 1040 -c 2 -a 0 -i 23 -k RTR
+ -t 31.226551934 -s 2 -d 1 -p tcp -e 1040 -c 2 -a 0 -i 19 -k RTR 
- -t 31.226551934 -s 2 -d 1 -p tcp -e 1040 -c 2 -a 0 -i 19 -k RTR
h -t 31.226551934 -s 2 -d 1 -p tcp -e 1040 -c 2 -a 0 -i 19 -k RTR
+ -t 31.236498546 -s 2 -d 1 -p tcp -e 1040 -c 2 -a 0 -i 22 -k RTR 
- -t 31.236498546 -s 2 -d 1 -p tcp -e 1040 -c 2 -a 0 -i 22 -k RTR
h -t 31.236498546 -s 2 -d 1 -p tcp -e 1040 -c 2 -a 0 -i 22 -k RTR
r -t 31.246444247 -s 1 -d 1 -p tcp -e 1040 -c 2 -a 0 -i 19 -k AGT
+ -t 31.246444247 -s 1 -d -1 -p ack -e 40 -c 2 -a 0 -i 24 -k AGT 
- -t 31.246444247 -s 1 -d -1 -p ack -e 40 -c 2 -a 0 -i 24 -k AGT
h -t 31.246444247 -s 1 -d -1 -p ack -e 40 -c 2 -a 0 -i 24 -k AGT
+ -t 31.246444247 -s 1 -d 2 -p ack -e 40 -c 2 -a 0 -i 24 -k RTR 
- -t 31.246444247 -s 1 -d 2 -p ack -e 40 -c 2 -a 0 -i 24 -k RTR
h -t 31.246444247 -s 1 -d 2 -p ack -e 40 -c 2 -a 0 -i 24 -k RTR
r -t 31.256370514 -s 1 -d 1 -p tcp -e 1040 -c 2 -a 0 -i 22 -k AGT
+ -t 31.256370514 -s 1 -d -1 -p ack -e 40 -c 2 -a 0 -i 25 -k AGT 
- -t 31.256370514 -s 1 -d -1 -p ack -e 40 -c 2 -a 0 -i 25 -k AGT
h -t 31.256370514 -s 1 -d -1 -p ack -e 40 -c 2 -a 0 -i 25 -k AGT
+ -t 31.256370514 -s 1 -d 2 -p ack -e 40 -c 2 -a 0 -i 25 -k RTR 
- -t 31.256370514 -s 1 -d 2 -p ack -e 40 -c 2 -a 0 -i 25 -k RTR
h -t 31.256370514 -s 1 -d 2 -p ack -e 40 -c 2 -a 0 -i 25 -k RTR
+ -t 31.258236214 -s 2 -d 0 -p ack -e 40 -c 2 -a 0 -i 21 -k RTR 
- -t 31.258236214 -s 2 -d 0 -p ack -e 40 -c 2 -a 0 -i 21 -k RTR
h -t 31.258236214 -s 2 -d 0 -p ack -e 40 -c 2 -a 0 -i 21 -k RTR
r -t 31.260122172 -s 0 -d 0 -p ack -e 40 -c 2 -a 0 -i 21 -k AGT
+ -t 31.260122172 -s 0 -d -1 -p tcp -e 1040 -c 2 -a 0 -i 26 -k AGT 
- -t 31.260122172 -s 0 -d -1 -p tcp -e 1040 -c 2 -a 0 -i 26 -k AGT
h -t 31.260122172 -s 0 -d -1 -p tcp -e 1040 -c 2 -a 0 -i 26 -k AGT
+ -t 31.260122172 -s 0 -d 2 -p tcp -e 1040 -c 2 -a 0 -i 26 -k RTR 
- -t 31.260122172 -s 0 -d 2 -p tcp -e 1040 -c 2 -a 0 -i 26 -k RTR
h -t 31.260122172 -s 0 -d 2 -p tcp -e 1040 -c 2 -a 0 -i 26 -k RTR
+ -t 31.270048130 -s 2 -d 1 -p tcp -e 1040 -c 2 -a 0 -i 23 -k RTR 
- -t 31.270048130 -s 2 -d 1 -p tcp -e 1040 -c 2 -a 0 -i 23 -k RTR
h -t 31.270048130 -s 2 -d 1 -p tcp -e 1040 -c 2 -a 0 -i 23 -k RTR
+ -t 31.279934741 -s 2 -d 1 -p tcp -e 1040 -c 2 -a 0 -i 26 -k RTR 
- -t 31.279934741 -s 2 -d 1 -p tcp -e 1040 -c 2 -a 0 -i 26 -k RTR
h -t 31.279934741 -s 2 -d 1 -p tcp -e 1040 -c 2 -a 0 -i 26 -k RTR
r -t 31.289820440 -s 1 -d 1 -p tcp -e 1040 -c 2 -a 0 -i 23 -k AGT
+ -t 31.289820440 -s 1 -d -1 -p ack -e 40 -c 2 -a 0 -i 27 -k AGT 
- -t 31.289820440 -s 1 -d -1 -p ack -e 40 -c 2 -a 0 -i 27 -k AGT
h -t 31.289820440 -s 1 -d -1 -p ack -e 40 -c 2 -a 0 -i 27 -k AGT
+ -t 31.289820440 -s 1 -d 2 -p ack -e 40 -c 2 -a 0 -i 27 -k RTR 
- -t 31.289820440 -s 1 -d 2 -p ack -e 40 -c 2 -a 0 -i 27 -k RTR
h -t 31.289820440 -s 1 -d 2 -p ack -e 40 -c 2 -a 0 -i 27 -k RTR
+ -t 31.291866139 -s 2 -d 0 -p ack -e 40 -c 2 -a 0 -i 24 -k RTR 
- -t 31.291866139 -s 2 -d 0 -p ack -e 40 -c 2 -a 0 -i 24 -k RTR
h -t 31.291866139 -s 2 -d 0 -p ack -e 40 -c 2 -a 0 -i 24 -k RTR
+ -t 31.293812404 -s 2 -d 0 -p ack -e 40 -c 2 -a 0 -i 25 -k RTR 
- -t 31.293812404 -s 2 -d 0 -p ack -e 40 -c 2 -a 0 -i 25 -k RTR
h -t 31.293812404 -s 2 -d 0 -p ack -e 40 -c 2 -a 0 -i 25 -k RTR
+ -t 31.295698668 -s 2 -d 0 -p ack -e 40 -c 2 -a 0 -i 27 -k RTR 
- -t 31.295698668 -s 2 -d 0 -p ack -e 40 -c 2 -a 0 -i 27 -k RTR
h -t 31.295698668 -s 2 -d 0 -p ack -e 40 -c 2 -a 0 -i 27 -k RTR
r -t 31.305744367 -s 1 -d 1 -p tcp -e 1040 -c 2 -a 0 -i 26 -k AGT
+ -t 31.305744367 -s 1 -d -1 -p ack -e 40 -c 2 -a 0 -i 28 -k AGT 
- -t 31.305744367 -s 1 -d -1 -p ack -e 40 -c 2 -a 0 -i 28 -k AGT
h -t 31.305744367 -s 1 -d -1 -p ack -e 40 -c 2 -a 0 -i 28 -k AGT
+ -t 31.305744367 -s 1 -d 2 -p ack -e 40 -c 2 -a 0 -i 28 -k RTR 
- -t 31.305744367 -s 1 -d 2 -p ack -e 40 -c 2 -a 0 -i 28 -k RTR
h -t 31.305744367 -s 1 -d 2 -p ack -e 40 -c 2 -a 0 -i 28 -k RTR
r -t 31.307690890 -s 0 -d 0 -p ack -e 40 -c 2 -a 0 -i 24 -k AGT
+ -t 31.307690890 -s 0 -d -1 -p tcp -e 1040 -c 2 -a 0 -i 29 -k AGT 
- -t 31.307690890 -s 0 -d -1 -p tcp -e 1040 -c 2 -a 0 -i 29 -k AGT
h -t 31.307690890 -s 0 -d -1 -p tcp -e 1040 -c 2 -a 0 -i 29 -k AGT
+ -t 31.307690890 -s 0 -d 2 -p tcp -e 1040 -c 2 -a 0 -i 29 -k RTR 
- -t 31.307690890 -s 0 -d 2 -p tcp -e 1040 -c 2 -a 0 -i 29 -k RTR
h -t 31.307690890 -s 0 -d 2 -p tcp -e 1040 -c 2 -a 0 -i 29 -k RTR
+ -t 31.317596847 -s 2 -d 1 -p tcp -e 1040 -c 2 -a 0 -i 29 -k RTR 
- -t 31.317596847 -s 2 -d 1 -p tcp -e 1040 -c 2 -a 0 -i 29 -k RTR
h -t 31.317596847 -s 2 -d 1 -p tcp -e 1040 -c 2 -a 0 -i 29 -k RTR
+ -t 31.319733037 -s 2 -d 0 -p ack -e 40 -c 2 -a 0 -i 28 -k RTR 
- -t 31.319733037 -s 2 -d 0 -p ack -e 40 -c 2 -a 0 -i 28 -k RTR
h -t 31.319733037 -s 2 -d 0 -p ack -e 40 -c 2 -a 0 -i 28 -k RTR
r -t 31.321798994 -s 0 -d 0 -p ack -e 40 -c 2 -a 0 -i 25 -k AGT
+ -t 31.321798994 -s 0 -d -1 -p tcp -e 1040 -c 2 -a 0 -i 30 -k AGT 
- -t 31.321798994 -s 0 -d -1 -p tcp -e 1040 -c 2 -a 0 -i 30 -k AGT
h -t 31.321798994 -s 0 -d -1 -p tcp -e 1040 -c 2 -a 0 -i 30 -k AGT
+ -t 31.321798994 -s 0 -d 2 -p tcp -e 1040 -c 2 -a 0 -i 30 -k RTR 
- -t 31.321798994 -s 0 -d 2 -p tcp -e 1040 -c 2 -a 0 -i 30 -k RTR
h -t 31.321798994 -s 0 -d 2 -p tcp -e 1040 -c 2 -a 0 -i 30 -k RTR
+ -t 31.331924951 -s 2 -d 1 -p tcp -e 1040 -c 2 -a 0 -i 30 -k RTR 
- -t 31.331924951 -s 2 -d 1 -p tcp -e 1040 -c 2 -a 0 -i 30 -k RTR
h -t 31.331924951 -s 2 -d 1 -p tcp -e 1040 -c 2 -a 0 -i 30 -k RTR
r -t 31.333770908 -s 0 -d 0 -p ack -e 40 -c 2 -a 0 -i 27 -k AGT
+ -t 31.333770908 -s 0 -d -1 -p tcp -e 1040 -c 2 -a 0 -i 31 -k AGT 
- -t 31.333770908 -s 0 -d -1 -p tcp -e 1040 -c 2 -a 0 -i 31 -k AGT
h -t 31.333770908 -s 0 -d -1 -p tcp -e 1040 -c 2 -a 0 -i 31 -k AGT
+ -t 31.333770908 -s 0 -d 2 -p tcp -e 1040 -c 2 -a 0 -i 31 -k RTR 
- -t 31.333770908 -s 0 -d 2 -p tcp -e 1040 -c 2 -a 0 -i 31 -k RTR
h -t 31.333770908 -s 0 -d 2 -p tcp -e 1040 -c 2 -a 0 -i 31 -k RTR
+ -t 31.343896865 -s 2 -d 1 -p tcp -e 1040 -c 2 -a 0 -i 31 -k RTR 
- -t 31.343896865 -s 2 -d 1 -p tcp -e 1040 -c 2 -a 0 -i 31 -k RTR
h -t 31.343896865 -s 2 -d 1 -p tcp -e 1040 -c 2 -a 0 -i 31 -k RTR
r -t 31.353782561 -s 1 -d 1 -p tcp -e 1040 -c 2 -a 0 -i 29 -k AGT
+ -t 31.353782561 -s 1 -d -1 -p ack -e 40 -c 2 -a 0 -i 32 -k AGT 
- -t 31.353782561 -s 1 -d -1 -p ack -e 40 -c 2 -a 0 -i 32 -k AGT
h -t 31.353782561 -s 1 -d -1 -p ack -e 40 -c 2 -a 0 -i 32 -k AGT
+ -t 31.353782561 -s 1 -d 2 -p ack -e 40 -c 2 -a 0 -i 32 -k RTR 
- -t 31.353782561 -s 1 -d 2 -p ack -e 40 -c 2 -a 0 -i 32 -k RTR
h -t 31.353782561 -s 1 -d 2 -p ack -e 40 -c 2 -a 0 -i 32 -k RTR
+ -t 31.355928257 -s 2 -d 0 -p ack -e 40 -c 2 -a 0 -i 32 -k RTR 
- -t 31.355928257 -s 2 -d 0 -p ack -e 40 -c 2 -a 0 -i 32 -k RTR
h -t 31.355928257 -s 2 -d 0 -p ack -e 40 -c 2 -a 0 -i 32 -k RTR
r -t 31.358034213 -s 0 -d 0 -p ack -e 40 -c 2 -a 0 -i 28 -k AGT
+ -t 31.358034213 -s 0 -d -1 -p tcp -e 1040 -c 2 -a 0 -i 33 -k AGT 
- -t 31.358034213 -s 0 -d -1 -p tcp -e 1040 -c 2 -a 0 -i 33 -k AGT
h -t 31.358034213 -s 0 -d -1 -p tcp -e 1040 -c 2 -a 0 -i 33 -k AGT
+ -t 31.358034213 -s 0 -d -1 -p tcp -e 1040 -c 2 -a 0 -i 34 -k AGT 
- -t 31.358034213 -s 0 -d -1 -p tcp -e 1040 -c 2 -a 0 -i 34 -k AGT
h -t 31.358034213 -s 0 -d -1 -p tcp -e 1040 -c 2 -a 0 -i 34 -k AGT
+ -t 31.358034213 -s 0 -d 2 -p tcp -e 1040 -c 2 -a 0 -i 33 -k RTR 
- -t 31.358034213 -s 0 -d 2 -p tcp -e 1040 -c 2 -a 0 -i 33 -k RTR
h -t 31.358034213 -s 0 -d 2 -p tcp -e 1040 -c 2 -a 0 -i 33 -k RTR
+ -t 31.358034213 -s 0 -d 2 -p tcp -e 1040 -c 2 -a 0 -i 34 -k RTR 
- -t 31.358034213 -s 0 -d 2 -p tcp -e 1040 -c 2 -a 0 -i 34 -k RTR
h -t 31.358034213 -s 0 -d 2 -p tcp -e 1040 -c 2 -a 0 -i 34 -k RTR
r -t 31.368020561 -s 1 -d 1 -p tcp -e 1040 -c 2 -a 0 -i 30 -k AGT
+ -t 31.368020561 -s 1 -d -1 -p ack -e 40 -c 2 -a 0 -i 35 -k AGT 
- -t 31.368020561 -s 1 -d -1 -p ack -e 40 -c 2 -a 0 -i 35 -k AGT
h -t 31.368020561 -s 1 -d -1 -p ack -e 40 -c 2 -a 0 -i 35 -k AGT
+ -t 31.368020561 -s 1 -d 2 -p ack -e 40 -c 2 -a 0 -i 35 -k RTR 
- -t 31.368020561 -s 1 -d 2 -p ack -e 40 -c 2 -a 0 -i 35 -k RTR
h -t 31.368020561 -s 1 -d 2 -p ack -e 40 -c 2 -a 0 -i 35 -k RTR
+ -t 31.378231661 -s 2 -d 1 -p tcp -e 1040 -c 2 -a 0 -i 33 -k RTR 
- -t 31.378231661 -s 2 -d 1 -p tcp -e 1040 -c 2 -a 0 -i 33 -k RTR
h -t 31.378231661 -s 2 -d 1 -p tcp -e 1040 -c 2 -a 0 -i 33 -k RTR
r -t 31.388077356 -s 1 -d 1 -p tcp -e 1040 -c 2 -a 0 -i 31 -k AGT
+ -t 31.388077356 -s 1 -d -1 -p ack -e 40 -c 2 -a 0 -i 36 -k AGT 
- -t 31.388077356 -s 1 -d -1 -p ack -e 40 -c 2 -a 0 -i 36 -k AGT
h -t 31.388077356 -s 1 -d -1 -p ack -e 40 -c 2 -a 0 -i 36 -k AGT
+ -t 31.388077356 -s 1 -d 2 -p ack -e 40 -c 2 -a 0 -i 36 -k RTR 
- -t 31.388077356 -s 1 -d 2 -p ack -e 40 -c 2 -a 0 -i 36 -k RTR
h -t 31.388077356 -s 1 -d 2 -p ack -e 40 -c 2 -a 0 -i 36 -k RTR
+ -t 31.389963050 -s 2 -d 0 -p ack -e 40 -c 2 -a 0 -i 35 -k RTR 
- -t 31.389963050 -s 2 -d 0 -p ack -e 40 -c 2 -a 0 -i 35 -k RTR
h -t 31.389963050 -s 2 -d 0 -p ack -e 40 -c 2 -a 0 -i 35 -k RTR
r -t 31.391909006 -s 0 -d 0 -p ack -e 40 -c 2 -a 0 -i 32 -k AGT
+ -t 31.391909006 -s 0 -d -1 -p tcp -e 1040 -c 2 -a 0 -i 37 -k AGT 
- -t 31.391909006 -s 0 -d -1 -p tcp -e 1040 -c 2 -a 0 -i 37 -k AGT
h -t 31.391909006 -s 0 -d -1 -p tcp -e 1040 -c 2 -a 0 -i 37 -k AGT
+ -t 31.391909006 -s 0 -d 2 -p tcp -e 1040 -c 2 -a 0 -i 37 -k RTR 
- -t 31.391909006 -s 0 -d 2 -p tcp -e 1040 -c 2 -a 0 -i 37 -k RTR
h -t 31.391909006 -s 0 -d 2 -p tcp -e 1040 -c 2 -a 0 -i 37 -k RTR
r -t 31.401735352 -s 1 -d 1 -p tcp -e 1040 -c 2 -a 0 -i 33 -k AGT
+ -t 31.401735352 -s 1 -d -1 -p ack -e 40 -c 2 -a 0 -i 38 -k AGT 
- -t 31.401735352 -s 1 -d -1 -p ack -e 40 -c 2 -a 0 -i 38 -k AGT
h -t 31.401735352 -s 1 -d -1 -p ack -e 40 -c 2 -a 0 -i 38 -k AGT
+ -t 31.401735352 -s 1 -d 2 -p ack -e 40 -c 2 -a 0 -i 38 -k RTR 
- -t 31.401735352 -s 1 -d 2 -p ack -e 40 -c 2 -a 0 -i 38 -k RTR
h -t 31.401735352 -s 1 -d 2 -p ack -e 40 -c 2 -a 0 -i 38 -k RTR
+ -t 31.403681046 -s 2 -d 0 -p ack -e 40 -c 2 -a 0 -i 36 -k RTR 
- -t 31.403681046 -s 2 -d 0 -p ack -e 40 -c 2 -a 0 -i 36 -k RTR
h -t 31.403681046 -s 2 -d 0 -p ack -e 40 -c 2 -a 0 -i 36 -k RTR
r -t 31.405547001 -s 0 -d 0 -p ack -e 40 -c 2 -a 0 -i 35 -k AGT
+ -t 31.405547001 -s 0 -d -1 -p tcp -e 1040 -c 2 -a 0 -i 39 -k AGT 
- -t 31.405547001 -s 0 -d -1 -p tcp -e 1040 -c 2 -a 0 -i 39 -k AGT
h -t 31.405547001 -s 0 -d -1 -p tcp -e 1040 -c 2 -a 0 -i 39 -k AGT
+ -t 31.405547001 -s 0 -d 2 -p tcp -e 1040 -c 2 -a 0 -i 39 -k RTR 
- -t 31.405547001 -s 0 -d 2 -p tcp -e 1040 -c 2 -a 0 -i 39 -k RTR
h -t 31.405547001 -s 0 -d 2 -p tcp -e 1040 -c 2 -a 0 -i 39 -k RTR
+ -t 31.415432956 -s 2 -d 1 -p tcp -e 1040 -c 2 -a 0 -i 34 -k RTR 
- -t 31.415432956 -s 2 -d 1 -p tcp -e 1040 -c 2 -a 0 -i 34 -k RTR
h -t 31.415432956 -s 2 -d 1 -p tcp -e 1040 -c 2 -a 0 -i 34 -k RTR
r -t 31.417538911 -s 0 -d 0 -p ack -e 40 -c 2 -a 0 -i 36 -k AGT
+ -t 31.417538911 -s 0 -d -1 -p tcp -e 1040 -c 2 -a 0 -i 40 -k AGT 
- -t 31.417538911 -s 0 -d -1 -p tcp -e 1040 -c 2 -a 0 -i 40 -k AGT
h -t 31.417538911 -s 0 -d -1 -p tcp -e 1040 -c 2 -a 0 -i 40 -k AGT
+ -t 31.417538911 -s 0 -d 2 -p tcp -e 1040 -c 2 -a 0 -i 40 -k RTR 
- -t 31.417538911 -s 0 -d 2 -p tcp -e 1040 -c 2 -a 0 -i 40 -k RTR
h -t 31.417538911 -s 0 -d 2 -p tcp -e 1040 -c 2 -a 0 -i 40 -k RTR
+ -t 31.427524866 -s 2 -d 1 -p tcp -e 1040 -c 2 -a 0 -i 37 -k RTR 
- -t 31.427524866 -s 2 -d 1 -p tcp -e 1040 -c 2 -a 0 -i 37 -k RTR
h -t 31.427524866 -s 2 -d 1 -p tcp -e 1040 -c 2 -a 0 -i 37 -k RTR
+ -t 31.429521050 -s 2 -d 0 -p ack -e 40 -c 2 -a 0 -i 38 -k RTR 
- -t 31.429521050 -s 2 -d 0 -p ack -e 40 -c 2 -a 0 -i 38 -k RTR
h -t 31.429521050 -s 2 -d 0 -p ack -e 40 -c 2 -a 0 -i 38 -k RTR
r -t 31.439546742 -s 1 -d 1 -p tcp -e 1040 -c 2 -a 0 -i 34 -k AGT
+ -t 31.439546742 -s 1 -d -1 -p ack -e 40 -c 2 -a 0 -i 41 -k AGT 
- -t 31.439546742 -s 1 -d -1 -p ack -e 40 -c 2 -a 0 -i 41 -k AGT
h -t 31.439546742 -s 1 -d -1 -p ack -e 40 -c 2 -a 0 -i 41 -k AGT
+ -t 31.439546742 -s 1 -d 2 -p ack -e 40 -c 2 -a 0 -i 41 -k RTR 
- -t 31.439546742 -s 1 -d 2 -p ack -e 40 -c 2 -a 0 -i 41 -k RTR
h -t 31.439546742 -s 1 -d 2 -p ack -e 40 -c 2 -a 0 -i 41 -k RTR
+ -t 31.441392435 -s 2 -d 0 -p ack -e 40 -c 2 -a 0 -i 41 -k RTR 
- -t 31.441392435 -s 2 -d 0 -p ack -e 40 -c 2 -a 0 -i 41 -k RTR
h -t 31.441392435 -s 2 -d 0 -p ack -e 40 -c 2 -a 0 -i 41 -k RTR
+ -t 31.451288967 -s 2 -d 1 -p tcp -e 1040 -c 2 -a 0 -i 39 -k RTR 
- -t 31.451288967 -s 2 -d 1 -p tcp -e 1040 -c 2 -a 0 -i 39 -k RTR
h -t 31.451288967 -s 2 -d 1 -p tcp -e 1040 -c 2 -a 0 -i 39 -k RTR
+ -t 31.461115572 -s 2 -d 1 -p tcp -e 1040 -c 2 -a 0 -i 40 -k RTR 
- -t 31.461115572 -s 2 -d 1 -p tcp -e 1040 -c 2 -a 0 -i 40 -k RTR
h -t 31.461115572 -s 2 -d 1 -p tcp -e 1040 -c 2 -a 0 -i 40 -k RTR
r -t 31.471141264 -s 1 -d 1 -p tcp -e 1040 -c 2 -a 0 -i 37 -k AGT
+ -t 31.471141264 -s 1 -d -1 -p ack -e 40 -c 2 -a 0 -i 42 -k AGT 
- -t 31.471141264 -s 1 -d -1 -p ack -e 40 -c 2 -a 0 -i 42 -k AGT
h -t 31.471141264 -s 1 -d -1 -p ack -e 40 -c 2 -a 0 -i 42 -k AGT
+ -t 31.471141264 -s 1 -d 2 -p ack -e 40 -c 2 -a 0 -i 42 -k RTR 
- -t 31.471141264 -s 1 -d 2 -p ack -e 40 -c 2 -a 0 -i 42 -k RTR
h -t 31.471141264 -s 1 -d 2 -p ack -e 40 -c 2 -a 0 -i 42 -k RTR
+ -t 31.473486955 -s 2 -d 0 -p ack -e 40 -c 2 -a 0 -i 42 -k RTR 
- -t 31.473486955 -s 2 -d 0 -p ack -e 40 -c 2 -a 0 -i 42 -k RTR
h -t 31.473486955 -s 2 -d 0 -p ack -e 40 -c 2 -a 0 -i 42 -k RTR
r -t 31.475412909 -s 0 -d 0 -p ack -e 40 -c 2 -a 0 -i 38 -k AGT
+ -t 31.475412909 -s 0 -d -1 -p tcp -e 1040 -c 2 -a 0 -i 43 -k AGT 
- -t 31.475412909 -s 0 -d -1 -p tcp -e 1040 -c 2 -a 0 -i 43 -k AGT
h -t 31.475412909 -s 0 -d -1 -p tcp -e 1040 -c 2 -a 0 -i 43 -k AGT
+ -t 31.475412909 -s 0 -d 2 -p tcp -e 1040 -c 2 -a 0 -i 43 -k RTR 
- -t 31.475412909 -s 0 -d 2 -p tcp -e 1040 -c 2 -a 0 -i 43 -k RTR
h -t 31.475412909 -s 0 -d 2 -p tcp -e 1040 -c 2 -a 0 -i 43 -k RTR
+ -t 31.485258862 -s 2 -d 1 -p tcp -e 1040 -c 2 -a 0 -i 43 -k RTR 
- -t 31.485258862 -s 2 -d 1 -p tcp -e 1040 -c 2 -a 0 -i 43 -k RTR
h -t 31.485258862 -s 2 -d 1 -p tcp -e 1040 -c 2 -a 0 -i 43 -k RTR
r -t 31.487104816 -s 0 -d 0 -p ack -e 40 -c 2 -a 0 -i 41 -k AGT
+ -t 31.487104816 -s 0 -d -1 -p tcp -e 1040 -c 2 -a 0 -i 44 -k AGT 
- -t 31.487104816 -s 0 -d -1 -p tcp -e 1040 -c 2 -a 0 -i 44 -k AGT
h -t 31.487104816 -s 0 -d -1 -p tcp -e 1040 -c 2 -a 0 -i 44 -k AGT
+ -t 31.487104816 -s 0 -d -1 -p tcp -e 1040 -c 2 -a 0 -i 45 -k AGT 
- -t 31.487104816 -s 0 -d -1 -p tcp -e 1040 -c 2 -a 0 -i 45 -k AGT
h -t 31.487104816 -s 0 -d -1 -p tcp -e 1040 -c 2 -a 0 -i 45 -k AGT