s 2.000000000 _0_ AGT  --- 0 tcp 40 [0 0 0 0] ------- [0:0 1:0 32 0] [0 0] 0 0
r 2.000000000 _0_ RTR  --- 0 tcp 40 [0 0 0 0] ------- [0:0 1:0 32 0] [0 0] 0 0
s 2.000000000 _0_ RTR  --- 0 AODV 48 [0 0 0 0] ------- [0:255 -1:255 30 0] [0x2 1 1 [1 0] [0 4]] (REQUEST)
s 4.000000000 _0_ RTR  --- 0 AODV 48 [0 0 0 0] ------- [0:255 -1:255 30 0] [0x2 1 2 [1 0] [0 6]] (REQUEST)
s 5.000000000 _0_ AGT  --- 1 tcp 40 [0 0 0 0] ------- [0:0 1:0 32 0] [0 0] 0 0
r 5.000000000 _0_ RTR  --- 1 tcp 40 [0 0 0 0] ------- [0:0 1:0 32 0] [0 0] 0 0
s 8.000000000 _0_ RTR  --- 0 AODV 48 [0 0 0 0] ------- [0:255 -1:255 30 0] [0x2 1 3 [1 0] [0 8]] (REQUEST)
M 10.00000 0 (5.00, 75.00, 0.00), (450.00, 100.00), 10.00
s 11.000000000 _0_ AGT  --- 2 tcp 40 [0 0 0 0] ------- [0:0 1:0 32 0] [0 0] 0 0
r 11.000000000 _0_ RTR  --- 2 tcp 40 [0 0 0 0] ------- [0:0 1:0 32 0] [0 0] 0 0
s 13.500000000 _0_ RTR  --- 0 AODV 48 [0 0 0 0] ------- [0:255 -1:255 30 0] [0x2 1 4 [1 0] [0 10]] (REQUEST)
M 15.00000 1 (460.00, 400.00, 0.00), (40.00, 350.00), 5.00
D 21.000000000 _0_ RTR NRTE 0 tcp 40 [0 0 0 0] ------- [0:0 1:0 30 0] [0 0] 0 0
D 21.000000000 _0_ RTR NRTE 1 tcp 40 [0 0 0 0] ------- [0:0 1:0 30 0] [0 0] 0 0
D 21.000000000 _0_ RTR NRTE 2 tcp 40 [0 0 0 0] ------- [0:0 1:0 30 0] [0 0] 0 0
s 23.000000000 _0_ AGT  --- 3 tcp 40 [0 0 0 0] ------- [0:0 1:0 32 0] [0 0] 0 0
r 23.000000000 _0_ RTR  --- 3 tcp 40 [0 0 0 0] ------- [0:0 1:0 32 0] [0 0] 0 0
s 31.000000000 _0_ RTR  --- 0 AODV 48 [0 0 0 0] ------- [0:255 -1:255 30 0] [0x2 1 5 [1 0] [0 12]] (REQUEST)
r 31.001308655 _2_ RTR  --- 0 AODV 48 [0 ffffffff 0 800] ------- [0:255 -1:255 30 0] [0x2 1 5 [1 0] [0 12]] (REQUEST)
s 31.009671890 _2_ RTR  --- 0 AODV 48 [0 ffffffff 0 800] ------- [2:255 -1:255 29 0] [0x2 2 5 [1 0] [0 12]] (REQUEST)
r 31.010660460 _1_ RTR  --- 0 AODV 48 [0 ffffffff 2 800] ------- [2:255 -1:255 29 0] [0x2 2 5 [1 0] [0 12]] (REQUEST)
s 31.010660460 _1_ RTR  --- 0 AODV 44 [0 0 0 0] ------- [1:255 0:255 30 2] [0x4 1 [1 4] 10.000000] (REPLY)
r 31.010660545 _0_ RTR  --- 0 AODV 48 [0 ffffffff 2 800] ------- [2:255 -1:255 29 0] [0x2 2 5 [1 0] [0 12]] (REQUEST)
r 31.015462451 _2_ RTR  --- 0 AODV 44 [13a 2 1 800] ------- [1:255 0:255 30 2] [0x4 1 [1 4] 10.000000] (REPLY)
f 31.015462451 _2_ RTR  --- 0 AODV 44 [13a 2 1 800] ------- [1:255 0:255 29 0] [0x4 2 [1 4] 10.000000] (REPLY)
r 31.020594033 _0_ RTR  --- 0 AODV 44 [13a 0 2 800] ------- [1:255 0:255 29 0] [0x4 2 [1 4] 10.000000] (REPLY)
s 31.020594033 _0_ RTR  --- 3 tcp 40 [0 0 0 0] ------- [0:0 1:0 30 2] [0 0] 0 0
r 31.022539997 _2_ RTR  --- 3 tcp 40 [13a 2 0 800] ------- [0:0 1:0 30 2] [0 0] 1 0
f 31.022539997 _2_ RTR  --- 3 tcp 40 [13a 2 0 800] ------- [0:0 1:0 29 1] [0 0] 1 0
r 31.024605706 _1_ AGT  --- 3 tcp 40 [13a 1 2 800] ------- [0:0 1:0 29 1] [0 0] 2 0
s 31.024605706 _1_ AGT  --- 4 ack 40 [0 0 0 0] ------- [1:0 0:0 32 0] [0 0] 0 0
r 31.024605706 _1_ RTR  --- 4 ack 40 [0 0 0 0] ------- [1:0 0:0 32 0] [0 0] 0 0
s 31.024605706 _1_ RTR  --- 4 ack 40 [0 0 0 0] ------- [1:0 0:0 30 2] [0 0] 0 0
r 31.026611416 _2_ RTR  --- 4 ack 40 [13a 2 1 800] ------- [1:0 0:0 30 2] [0 0] 1 0
f 31.026611416 _2_ RTR  --- 4 ack 40 [13a 2 1 800] ------- [1:0 0:0 29 0] [0 0] 1 0
r 31.028857380 _0_ AGT  --- 4 ack 40 [13a 0 2 800] ------- [1:0 0:0 29 0] [0 0] 2 0
s 31.028857380 _0_ AGT  --- 5 tcp 1040 [0 0 0 0] ------- [0:0 1:0 32 0] [1 0] 0 0
r 31.028857380 _0_ RTR  --- 5 tcp 1040 [0 0 0 0] ------- [0:0 1:0 32 0] [1 0] 0 0
s 31.028857380 _0_ RTR  --- 5 tcp 1040 [0 0 0 0] ------- [0:0 1:0 30 2] [1 0] 0 0
r 31.039223343 _2_ RTR  --- 5 tcp 1040 [13a 2 0 800] ------- [0:0 1:0 30 2] [1 0] 1 0
f 31.039223343 _2_ RTR  --- 5 tcp 1040 [13a 2 0 800] ------- [0:0 1:0 29 1] [1 0] 1 0
r 31.049089052 _1_ AGT  --- 5 tcp 1040 [13a 1 2 800] ------- [0:0 1:0 29 1] [1 0] 2 0
s 31.049089052 _1_ AGT  --- 6 ack 40 [0 0 0 0] ------- [1:0 0:0 32 0] [1 0] 0 0
r 31.049089052 _1_ RTR  --- 6 ack 40 [0 0 0 0] ------- [1:0 0:0 32 0] [1 0] 0 0
s 31.049089052 _1_ RTR  --- 6 ack 40 [0 0 0 0] ------- [1:0 0:0 30 2] [1 0] 0 0
r 31.051274761 _2_ RTR  --- 6 ack 40 [13a 2 1 800] ------- [1:0 0:0 30 2] [1 0] 1 0
f 31.051274761 _2_ RTR  --- 6 ack 40 [13a 2 1 800] ------- [1:0 0:0 29 0] [1 0] 1 0
r 31.053180724 _0_ AGT  --- 6 ack 40 [13a 0 2 800] ------- [1:0 0:0 29 0] [1 0] 2 0
s 31.053180724 _0_ AGT  --- 7 tcp 1040 [0 0 0 0] ------- [0:0 1:0 32 0] [2 0] 0 0
r 31.053180724 _0_ RTR  --- 7 tcp 1040 [0 0 0 0] ------- [0:0 1:0 32 0] [2 0] 0 0
s 31.053180724 _0_ AGT  --- 8 tcp 1040 [0 0 0 0] ------- [0:0 1:0 32 0] [3 0] 0 0
r 31.053180724 _0_ RTR  --- 8 tcp 1040 [0 0 0 0] ------- [0:0 1:0 32 0] [3 0] 0 0
s 31.053180724 _0_ RTR  --- 7 tcp 1040 [0 0 0 0] ------- [0:0 1:0 30 2] [2 0] 0 0
s 31.053180724 _0_ RTR  --- 8 tcp 1040 [0 0 0 0] ------- [0:0 1:0 30 2] [3 0] 0 0
r 31.063266687 _2_ RTR  --- 7 tcp 1040 [13a 2 0 800] ------- [0:0 1:0 30 2] [2 0] 1 0
f 31.063266687 _2_ RTR  --- 7 tcp 1040 [13a 2 0 800] ------- [0:0 1:0 29 1] [2 0] 1 0
r 31.073192395 _1_ AGT  --- 7 tcp 1040 [13a 1 2 800] ------- [0:0 1:0 29 1] [2 0] 2 0
s 31.073192395 _1_ AGT  --- 9 ack 40 [0 0 0 0] ------- [1:0 0:0 32 0] [2 0] 0 0
r 31.073192395 _1_ RTR  --- 9 ack 40 [0 0 0 0] ------- [1:0 0:0 32 0] [2 0] 0 0
s 31.073192395 _1_ RTR  --- 9 ack 40 [0 0 0 0] ------- [1:0 0:0 30 2] [2 0] 0 0
r 31.075198103 _2_ RTR  --- 9 ack 40 [13a 2 1 800] ------- [1:0 0:0 30 2] [2 0] 1 0
f 31.075198103 _2_ RTR  --- 9 ack 40 [13a 2 1 800] ------- [1:0 0:0 29 0] [2 0] 1 0
r 31.077084065 _0_ AGT  --- 9 ack 40 [13a 0 2 800] ------- [1:0 0:0 29 0] [2 0] 2 0
s 31.077084065 _0_ AGT  --- 10 tcp 1040 [0 0 0 0] ------- [0:0 1:0 32 0] [4 0] 0 0
r 31.077084065 _0_ RTR  --- 10 tcp 1040 [0 0 0 0] ------- [0:0 1:0 32 0] [4 0] 0 0
s 31.077084065 _0_ RTR  --- 10 tcp 1040 [0 0 0 0] ------- [0:0 1:0 30 2] [4 0] 0 0
r 31.087350027 _2_ RTR  --- 8 tcp 1040 [13a 2 0 800] ------- [0:0 1:0 30 2] [3 0] 1 0
f 31.087350027 _2_ RTR  --- 8 tcp 1040 [13a 2 0 800] ------- [0:0 1:0 29 1] [3 0] 1 0
r 31.097236644 _2_ RTR  --- 10 tcp 1040 [13a 2 0 800] ------- [0:0 1:0 30 2] [4 0] 1 0
f 31.097236644 _2_ RTR  --- 10 tcp 1040 [13a 2 0 800] ------- [0:0 1:0 29 1] [4 0] 1 0
r 31.107162350 _1_ AGT  --- 8 tcp 1040 [13a 1 2 800] ------- [0:0 1:0 29 1] [3 0] 2 0
s 31.107162350 _1_ AGT  --- 11 ack 40 [0 0 0 0] ------- [1:0 0:0 32 0] [3 0] 0 0
r 31.107162350 _1_ RTR  --- 11 ack 40 [0 0 0 0] ------- [1:0 0:0 32 0] [3 0] 0 0
s 31.107162350 _1_ RTR  --- 11 ack 40 [0 0 0 0] ------- [1:0 0:0 30 2] [3 0] 0 0
r 31.109048057 _2_ RTR  --- 11 ack 40 [13a 2 1 800] ------- [1:0 0:0 30 2] [3 0] 1 0
f 31.109048057 _2_ RTR  --- 11 ack 40 [13a 2 1 800] ------- [1:0 0:0 29 0] [3 0] 1 0
r 31.119173763 _1_ AGT  --- 10 tcp 1040 [13a 1 2 800] ------- [0:0 1:0 29 1] [4 0] 2 0
s 31.119173763 _1_ AGT  --- 12 ack 40 [0 0 0 0] ------- [1:0 0:0 32 0] [4 0] 0 0
r 31.119173763 _1_ RTR  --- 12 ack 40 [0 0 0 0] ------- [1:0 0:0 32 0] [4 0] 0 0
s 31.119173763 _1_ RTR  --- 12 ack 40 [0 0 0 0] ------- [1:0 0:0 30 2] [4 0] 0 0
r 31.121219468 _2_ RTR  --- 12 ack 40 [13a 2 1 800] ------- [1:0 0:0 30 2] [4 0] 1 0
f 31.121219468 _2_ RTR  --- 12 ack 40 [13a 2 1 800] ------- [1:0 0:0 29 0] [4 0] 1 0
r 31.123125430 _0_ AGT  --- 11 ack 40 [13a 0 2 800] ------- [1:0 0:0 29 0] [3 0] 2 0
s 31.123125430 _0_ AGT  --- 13 tcp 1040 [0 0 0 0] ------- [0:0 1:0 32 0] [5 0] 0 0
r 31.123125430 _0_ RTR  --- 13 tcp 1040 [0 0 0 0] ------- [0:0 1:0 32 0] [5 0] 0 0
s 31.123125430 _0_ RTR  --- 13 tcp 1040 [0 0 0 0] ------- [0:0 1:0 30 2] [5 0] 0 0
r 31.133231391 _2_ RTR  --- 13 tcp 1040 [13a 2 0 800] ------- [0:0 1:0 30 2] [5 0] 1 0
f 31.133231391 _2_ RTR  --- 13 tcp 1040 [13a 2 0 800] ------- [0:0 1:0 29 1] [5 0] 1 0
r 31.135277352 _0_ AGT  --- 12 ack 40 [13a 0 2 800] ------- [1:0 0:0 29 0] [4 0] 2 0
s 31.135277352 _0_ AGT  --- 14 tcp 1040 [0 0 0 0] ------- [0:0 1:0 32 0] [6 0] 0 0
r 31.135277352 _0_ RTR  --- 14 tcp 1040 [0 0 0 0] ------- [0:0 1:0 32 0] [6 0] 0 0
s 31.135277352 _0_ AGT  --- 15 tcp 1040 [0 0 0 0] ------- [0:0 1:0 32 0] [7 0] 0 0
r 31.135277352 _0_ RTR  --- 15 tcp 1040 [0 0 0 0] ------- [0:0 1:0 32 0] [7 0] 0 0
s 31.135277352 _0_ RTR  --- 14 tcp 1040 [0 0 0 0] ------- [0:0 1:0 30 2] [6 0] 0 0
s 31.135277352 _0_ RTR  --- 15 tcp 1040 [0 0 0 0] ------- [0:0 1:0 30 2] [7 0] 0 0
r 31.145323314 _2_ RTR  --- 14 tcp 1040 [13a 2 0 800] ------- [0:0 1:0 30 2] [6 0] 1 0
f 31.145323314 _2_ RTR  --- 14 tcp 1040 [13a 2 0 800] ------- [0:0 1:0 29 1] [6 0] 1 0
r 31.155269018 _1_ AGT  --- 13 tcp 1040 [13a 1 2 800] ------- [0:0 1:0 29 1] [5 0] 2 0
s 31.155269018 _1_ AGT  --- 16 ack 40 [0 0 0 0] ------- [1:0 0:0 32 0] [5 0] 0 0
r 31.155269018 _1_ RTR  --- 16 ack 40 [0 0 0 0] ------- [1:0 0:0 32 0] [5 0] 0 0
s 31.155269018 _1_ RTR  --- 16 ack 40 [0 0 0 0] ------- [1:0 0:0 30 2] [5 0] 0 0
r 31.165175290 _1_ AGT  --- 14 tcp 1040 [13a 1 2 800] ------- [0:0 1:0 29 1] [6 0] 2 0
s 31.165175290 _1_ AGT  --- 17 ack 40 [0 0 0 0] ------- [1:0 0:0 32 0] [6 0] 0 0
r 31.165175290 _1_ RTR  --- 17 ack 40 [0 0 0 0] ------- [1:0 0:0 32 0] [6 0] 0 0
s 31.165175290 _1_ RTR  --- 17 ack 40 [0 0 0 0] ------- [1:0 0:0 30 2] [6 0] 0 0
r 31.167140994 _2_ RTR  --- 16 ack 40 [13a 2 1 800] ------- [1:0 0:0 30 2] [5 0] 1 0
f 31.167140994 _2_ RTR  --- 16 ack 40 [13a 2 1 800] ------- [1:0 0:0 29 0] [5 0] 1 0
r 31.168967266 _2_ RTR  --- 17 ack 40 [13a 2 1 800] ------- [1:0 0:0 30 2] [6 0] 1 0
f 31.168967266 _2_ RTR  --- 17 ack 40 [13a 2 1 800] ------- [1:0 0:0 29 0] [6 0] 1 0
r 31.178903807 _2_ RTR  --- 15 tcp 1040 [13a 2 0 800] ------- [0:0 1:0 30 2] [7 0] 1 0
f 31.178903807 _2_ RTR  --- 15 tcp 1040 [13a 2 0 800] ------- [0:0 1:0 29 1] [7 0] 1 0
r 31.180809768 _0_ AGT  --- 16 ack 40 [13a 0 2 800] ------- [1:0 0:0 29 0] [5 0] 2 0
s 31.180809768 _0_ AGT  --- 18 tcp 1040 [0 0 0 0] ------- [0:0 1:0 32 0] [8 0] 0 0
r 31.180809768 _0_ RTR  --- 18 tcp 1040 [0 0 0 0] ------- [0:0 1:0 32 0] [8 0] 0 0
s 31.180809768 _0_ RTR  --- 18 tcp 1040 [0 0 0 0] ------- [0:0 1:0 30 2] [8 0] 0 0
r 31.190875728 _2_ RTR  --- 18 tcp 1040 [13a 2 0 800] ------- [0:0 1:0 30 2] [8 0] 1 0
f 31.190875728 _2_ RTR  --- 18 tcp 1040 [13a 2 0 800] ------- [0:0 1:0 29 1] [8 0] 1 0
r 31.192761687 _0_ AGT  --- 17 ack 40 [13a 0 2 800] ------- [1:0 0:0 29 0] [6 0] 2 0
s 31.192761687 _0_ AGT  --- 19 tcp 1040 [0 0 0 0] ------- [0:0 1:0 32 0] [9 0] 0 0
r 31.192761687 _0_ RTR  --- 19 tcp 1040 [0 0 0 0] ------- [0:0 1:0 32 0] [9 0] 0 0
s 31.192761687 _0_ RTR  --- 19 tcp 1040 [0 0 0 0] ------- [0:0 1:0 30 2] [9 0] 0 0
r 31.202828043 _1_ AGT  --- 15 tcp 1040 [13a 1 2 800] ------- [0:0 1:0 29 1] [7 0] 2 0
s 31.202828043 _1_ AGT  --- 20 ack 40 [0 0 0 0] ------- [1:0 0:0 32 0] [7 0] 0 0
r 31.202828043 _1_ RTR  --- 20 ack 40 [0 0 0 0] ------- [1:0 0:0 32 0] [7 0] 0 0
s 31.202828043 _1_ RTR  --- 20 ack 40 [0 0 0 0] ------- [1:0 0:0 30 2] [7 0] 0 0
r 31.204773746 _2_ RTR  --- 20 ack 40 [13a 2 1 800] ------- [1:0 0:0 30 2] [7 0] 1 0
f 31.204773746 _2_ RTR  --- 20 ack 40 [13a 2 1 800] ------- [1:0 0:0 29 0] [7 0] 1 0
r 31.214619448 _1_ AGT  --- 18 tcp 1040 [13a 1 2 800] ------- [0:0 1:0 29 1] [8 0] 2 0
s 31.214619448 _1_ AGT  --- 21 ack 40 [0 0 0 0] ------- [1:0 0:0 32 0] [8 0] 0 0
r 31.214619448 _1_ RTR  --- 21 ack 40 [0 0 0 0] ------- [1:0 0:0 32 0] [8 0] 0 0
s 31.214619448 _1_ RTR  --- 21 ack 40 [0 0 0 0] ------- [1:0 0:0 30 2] [8 0] 0 0
r 31.216485974 _0_ AGT  --- 20 ack 40 [13a 0 2 800] ------- [1:0 0:0 29 0] [7 0] 2 0
s 31.216485974 _0_ AGT  --- 22 tcp 1040 [0 0 0 0] ------- [0:0 1:0 32 0] [10 0] 0 0
r 31.216485974 _0_ RTR  --- 22 tcp 1040 [0 0 0 0] ------- [0:0 1:0 32 0] [10 0] 0 0
s 31.216485974 _0_ AGT  --- 23 tcp 1040 [0 0 0 0] ------- [0:0 1:0 32 0] [11 0] 0 0
r 31.216485974 _0_ RTR  --- 23 tcp 1040 [0 0 0 0] ------- [0:0 1:0 32 0] [11 0] 0 0
s 31.216485974 _0_ RTR  --- 22 tcp 1040 [0 0 0 0] ------- [0:0 1:0 30 2] [10 0] 0 0
s 31.216485974 _0_ RTR  --- 23 tcp 1040 [0 0 0 0] ------- [0:0 1:0 30 2] [11 0] 0 0
r 31.226551934 _2_ RTR  --- 19 tcp 1040 [13a 2 0 800] ------- [0:0 1:0 30 2] [9 0] 1 0
f 31.226551934 _2_ RTR  --- 19 tcp 1040 [13a 2 0 800] ------- [0:0 1:0 29 1] [9 0] 1 0
r 31.236498546 _2_ RTR  --- 22 tcp 1040 [13a 2 0 800] ------- [0:0 1:0 30 2] [10 0] 1 0
f 31.236498546 _2_ RTR  --- 22 tcp 1040 [13a 2 0 800] ------- [0:0 1:0 29 1] [10 0] 1 0
r 31.246444247 _1_ AGT  --- 19 tcp 1040 [13a 1 2 800] ------- [0:0 1:0 29 1] [9 0] 2 0
s 31.246444247 _1_ AGT  --- 24 ack 40 [0 0 0 0] ------- [1:0 0:0 32 0] [9 0] 0 0
r 31.246444247 _1_ RTR  --- 24 ack 40 [0 0 0 0] ------- [1:0 0:0 32 0] [9 0] 0 0
s 31.246444247 _1_ RTR  --- 24 ack 40 [0 0 0 0] ------- [1:0 0:0 30 2] [9 0] 0 0
r 31.256370514 _1_ AGT  --- 22 tcp 1040 [13a 1 2 800] ------- [0:0 1:0 29 1] [10 0] 2 0
s 31.256370514 _1_ AGT  --- 25 ack 40 [0 0 0 0] ------- [1:0 0:0 32 0] [10 0] 0 0
r 31.256370514 _1_ RTR  --- 25 ack 40 [0 0 0 0] ------- [1:0 0:0 32 0] [10 0] 0 0
s 31.256370514 _1_ RTR  --- 25 ack 40 [0 0 0 0] ------- [1:0 0:0 30 2] [10 0] 0 0
r 31.258236214 _2_ RTR  --- 21 ack 40 [13a 2 1 800] ------- [1:0 0:0 30 2] [8 0] 1 0
f 31.258236214 _2_ RTR  --- 21 ack 40 [13a 2 1 800] ------- [1:0 0:0 29 0] [8 0] 1 0
r 31.260122172 _0_ AGT  --- 21 ack 40 [13a 0 2 800] ------- [1:0 0:0 29 0] [8 0] 2 0
s 31.260122172 _0_ AGT  --- 26 tcp 1040 [0 0 0 0] ------- [0:0 1:0 32 0] [12 0] 0 0
r 31.260122172 _0_ RTR  --- 26 tcp 1040 [0 0 0 0] ------- [0:0 1:0 32 0] [12 0] 0 0
s 31.260122172 _0_ RTR  --- 26 tcp 1040 [0 0 0 0] ------- [0:0 1:0 30 2] [12 0] 0 0
r 31.270048130 _2_ RTR  --- 23 tcp 1040 [13a 2 0 800] ------- [0:0 1:0 30 2] [11 0] 1 0
f 31.270048130 _2_ RTR  --- 23 tcp 1040 [13a 2 0 800] ------- [0:0 1:0 29 1] [11 0] 1 0
r 31.279934741 _2_ RTR  --- 26 tcp 1040 [13a 2 0 800] ------- [0:0 1:0 30 2] [12 0] 1 0
f 31.279934741 _2_ RTR  --- 26 tcp 1040 [13a 2 0 800] ------- [0:0 1:0 29 1] [12 0] 1 0
r 31.289820440 _1_ AGT  --- 23 tcp 1040 [13a 1 2 800] ------- [0:0 1:0 29 1] [11 0] 2 0
s 31.289820440 _1_ AGT  --- 27 ack 40 [0 0 0 0] ------- [1:0 0:0 32 0] [11 0] 0 0
r 31.289820440 _1_ RTR  --- 27 ack 40 [0 0 0 0] ------- [1:0 0:0 32 0] [11 0] 0 0
s 31.289820440 _1_ RTR  --- 27 ack 40 [0 0 0 0] ------- [1:0 0:0 30 2] [11 0] 0 0
r 31.291866139 _2_ RTR  --- 24 ack 40 [13a 2 1 800] ------- [1:0 0:0 30 2] [9 0] 1 0
f 31.291866139 _2_ RTR  --- 24 ack 40 [13a 2 1 800] ------- [1:0 0:0 29 0] [9 0] 1 0
r 31.293812404 _2_ RTR  --- 25 ack 40 [13a 2 1 800] ------- [1:0 0:0 30 2] [10 0] 1 0
f 31.293812404 _2_ RTR  --- 25 ack 40 [13a 2 1 800] ------- [1:0 0:0 29 0] [10 0] 1 0
r 31.295698668 _2_ RTR  --- 27 ack 40 [13a 2 1 800] ------- [1:0 0:0 30 2] [11 0] 1 0
f 31.295698668 _2_ RTR  --- 27 ack 40 [13a 2 1 800] ------- [1:0 0:0 29 0] [11 0] 1 0
r 31.305744367 _1_ AGT  --- 26 tcp 1040 [13a 1 2 800] ------- [0:0 1:0 29 1] [12 0] 2 0
s 31.305744367 _1_ AGT  --- 28 ack 40 [0 0 0 0] ------- [1:0 0:0 32 0] [12 0] 0 0
r 31.305744367 _1_ RTR  --- 28 ack 40 [0 0 0 0] ------- [1:0 0:0 32 0] [12 0] 0 0
s 31.305744367 _1_ RTR  --- 28 ack 40 [0 0 0 0] ------- [1:0 0:0 30 2] [12 0] 0 0
r 31.307690890 _0_ AGT  --- 24 ack 40 [13a 0 2 800] ------- [1:0 0:0 29 0] [9 0] 2 0
s 31.307690890 _0_ AGT  --- 29 tcp 1040 [0 0 0 0] ------- [0:0 1:0 32 0] [13 0] 0 0
r 31.307690890 _0_ RTR  --- 29 tcp 1040 [0 0 0 0] ------- [0:0 1:0 32 0] [13 0] 0 0
s 31.307690890 _0_ RTR  --- 29 tcp 1040 [0 0 0 0] ------- [0:0 1:0 30 2] [13 0] 0 0
r 31.317596847 _2_ RTR  --- 29 tcp 1040 [13a 2 0 800] ------- [0:0 1:0 30 2] [13 0] 1 0
f 31.317596847 _2_ RTR  --- 29 tcp 1040 [13a 2 0 800] ------- [0:0 1:0 29 1] [13 0] 1 0
r 31.319733037 _2_ RTR  --- 28 ack 40 [13a 2 1 800] ------- [1:0 0:0 30 2] [12 0] 1 0
f 31.319733037 _2_ RTR  --- 28 ack 40 [13a 2 1 800] ------- [1:0 0:0 29 0] [12 0] 1 0
r 31.321798994 _0_ AGT  --- 25 ack 40 [13a 0 2 800] ------- [1:0 0:0 29 0] [10 0] 2 0
s 31.321798994 _0_ AGT  --- 30 tcp 1040 [0 0 0 0] ------- [0:0 1:0 32 0] [14 0] 0 0
r 31.321798994 _0_ RTR  --- 30 tcp 1040 [0 0 0 0] ------- [0:0 1:0 32 0] [14 0] 0 0
s 31.321798994 _0_ RTR  --- 30 tcp 1040 [0 0 0 0] ------- [0:0 1:0 30 2] [14 0] 0 0
r 31.331924951 _2_ RTR  --- 30 tcp 1040 [13a 2 0 800] ------- [0:0 1:0 30 2] [14 0] 1 0
f 31.331924951 _2_ RTR  --- 30 tcp 1040 [13a 2 0 800] ------- [0:0 1:0 29 1] [14 0] 1 0
r 31.333770908 _0_ AGT  --- 27 ack 40 [13a 0 2 800] ------- [1:0 0:0 29 0] [11 0] 2 0
s 31.333770908 _0_ AGT  --- 31 tcp 1040 [0 0 0 0] ------- [0:0 1:0 32 0] [15 0] 0 0
r 31.333770908 _0_ RTR  --- 31 tcp 1040 [0 0 0 0] ------- [0:0 1:0 32 0] [15 0] 0 0
s 31.333770908 _0_ RTR  --- 31 tcp 1040 [0 0 0 0] ------- [0:0 1:0 30 2] [15 0] 0 0
r 31.343896865 _2_ RTR  --- 31 tcp 1040 [13a 2 0 800] ------- [0:0 1:0 30 2] [15 0] 1 0
f 31.343896865 _2_ RTR  --- 31 tcp 1040 [13a 2 0 800] ------- [0:0 1:0 29 1] [15 0] 1 0
r 31.353782561 _1_ AGT  --- 29 tcp 1040 [13a 1 2 800] ------- [0:0 1:0 29 1] [13 0] 2 0
s 31.353782561 _1_ AGT  --- 32 ack 40 [0 0 0 0] ------- [1:0 0:0 32 0] [13 0] 0 0
r 31.353782561 _1_ RTR  --- 32 ack 40 [0 0 0 0] ------- [1:0 0:0 32 0] [13 0] 0 0
s 31.353782561 _1_ RTR  --- 32 ack 40 [0 0 0 0] ------- [1:0 0:0 30 2] [13 0] 0 0
r 31.355928257 _2_ RTR  --- 32 ack 40 [13a 2 1 800] ------- [1:0 0:0 30 2] [13 0] 1 0
f 31.355928257 _2_ RTR  --- 32 ack 40 [13a 2 1 800] ------- [1:0 0:0 29 0] [13 0] 1 0
r 31.358034213 _0_ AGT  --- 28 ack 40 [13a 0 2 800] ------- [1:0 0:0 29 0] [12 0] 2 0
s 31.358034213 _0_ AGT  --- 33 tcp 1040 [0 0 0 0] ------- [0:0 1:0 32 0] [16 0] 0 0
r 31.358034213 _0_ RTR  --- 33 tcp 1040 [0 0 0 0] ------- [0:0 1:0 32 0] [16 0] 0 0
s 31.358034213 _0_ AGT  --- 34 tcp 1040 [0 0 0 0] ------- [0:0 1:0 32 0] [17 0] 0 0
r 31.358034213 _0_ RTR  --- 34 tcp 1040 [0 0 0 0] ------- [0:0 1:0 32 0] [17 0] 0 0
s 31.358034213 _0_ RTR  --- 33 tcp 1040 [0 0 0 0] ------- [0:0 1:0 30 2] [16 0] 0 0
s 31.358034213 _0_ RTR  --- 34 tcp 1040 [0 0 0 0] ------- [0:0 1:0 30 2] [17 0] 0 0
r 31.368020561 _1_ AGT  --- 30 tcp 1040 [13a 1 2 800] ------- [0:0 1:0 29 1] [14 0] 2 0
s 31.368020561 _1_ AGT  --- 35 ack 40 [0 0 0 0] ------- [1:0 0:0 32 0] [14 0] 0 0
r 31.368020561 _1_ RTR  --- 35 ack 40 [0 0 0 0] ------- [1:0 0:0 32 0] [14 0] 0 0
s 31.368020561 _1_ RTR  --- 35 ack 40 [0 0 0 0] ------- [1:0 0:0 30 2] [14 0] 0 0
r 31.378231661 _2_ RTR  --- 33 tcp 1040 [13a 2 0 800] ------- [0:0 1:0 30 2] [16 0] 1 0
f 31.378231661 _2_ RTR  --- 33 tcp 1040 [13a 2 0 800] ------- [0:0 1:0 29 1] [16 0] 1 0
r 31.388077356 _1_ AGT  --- 31 tcp 1040 [13a 1 2 800] ------- [0:0 1:0 29 1] [15 0] 2 0
s 31.388077356 _1_ AGT  --- 36 ack 40 [0 0 0 0] ------- [1:0 0:0 32 0] [15 0] 0 0
r 31.388077356 _1_ RTR  --- 36 ack 40 [0 0 0 0] ------- [1:0 0:0 32 0] [15 0] 0 0
s 31.388077356 _1_ RTR  --- 36 ack 40 [0 0 0 0] ------- [1:0 0:0 30 2] [15 0] 0 0
r 31.389963050 _2_ RTR  --- 35 ack 40 [13a 2 1 800] ------- [1:0 0:0 30 2] [14 0] 1 0
f 31.389963050 _2_ RTR  --- 35 ack 40 [13a 2 1 800] ------- [1:0 0:0 29 0] [14 0] 1 0
r 31.391909006 _0_ AGT  --- 32 ack 40 [13a 0 2 800] ------- [1:0 0:0 29 0] [13 0] 2 0
s 31.391909006 _0_ AGT  --- 37 tcp 1040 [0 0 0 0] ------- [0:0 1:0 32 0] [18 0] 0 0
r 31.391909006 _0_ RTR  --- 37 tcp 1040 [0 0 0 0] ------- [0:0 1:0 32 0] [18 0] 0 0
s 31.391909006 _0_ RTR  --- 37 tcp 1040 [0 0 0 0] ------- [0:0 1:0 30 2] [18 0] 0 0
r 31.401735352 _1_ AGT  --- 33 tcp 1040 [13a 1 2 800] ------- [0:0 1:0 29 1] [16 0] 2 0
s 31.401735352 _1_ AGT  --- 38 ack 40 [0 0 0 0] ------- [1:0 0:0 32 0] [16 0] 0 0
r 31.401735352 _1_ RTR  --- 38 ack 40 [0 0 0 0] ------- [1:0 0:0 32 0] [16 0] 0 0
s 31.401735352 _1_ RTR  --- 38 ack 40 [0 0 0 0] ------- [1:0 0:0 30 2] [16 0] 0 0
r 31.403681046 _2_ RTR  --- 36 ack 40 [13a 2 1 800] ------- [1:0 0:0 30 2] [15 0] 1 0
f 31.403681046 _2_ RTR  --- 36 ack 40 [13a 2 1 800] ------- [1:0 0:0 29 0] [15 0] 1 0
r 31.405547001 _0_ AGT  --- 35 ack 40 [13a 0 2 800] ------- [1:0 0:0 29 0] [14 0] 2 0
s 31.405547001 _0_ AGT  --- 39 tcp 1040 [0 0 0 0] ------- [0:0 1:0 32 0] [19 0] 0 0
r 31.405547001 _0_ RTR  --- 39 tcp 1040 [0 0 0 0] ------- [0:0 1:0 32 0] [19 0] 0 0
s 31.405547001 _0_ RTR  --- 39 tcp 1040 [0 0 0 0] ------- [0:0 1:0 30 2] [19 0] 0 0
r 31.415432956 _2_ RTR  --- 34 tcp 1040 [13a 2 0 800] ------- [0:0 1:0 30 2] [17 0] 1 0
f 31.415432956 _2_ RTR  --- 34 tcp 1040 [13a 2 0 800] ------- [0:0 1:0 29 1] [17 0] 1 0
r 31.417538911 _0_ AGT  --- 36 ack 40 [13a 0 2 800] ------- [1:0 0:0 29 0] [15 0] 2 0
s 31.417538911 _0_ AGT  --- 40 tcp 1040 [0 0 0 0] ------- [0:0 1:0 32 0] [20 0] 0 0
r 31.417538911 _0_ RTR  --- 40 tcp 1040 [0 0 0 0] ------- [0:0 1:0 32 0] [20 0] 0 0
s 31.417538911 _0_ RTR  --- 40 tcp 1040 [0 0 0 0] ------- [0:0 1:0 30 2] [20 0] 0 0
r 31.427524866 _2_ RTR  --- 37 tcp 1040 [13a 2 0 800] ------- [0:0 1:0 30 2] [18 0] 1 0
f 31.427524866 _2_ RTR  --- 37 tcp 1040 [13a 2 0 800] ------- [0:0 1:0 29 1] [18 0] 1 0
r 31.429521050 _2_ RTR  --- 38 ack 40 [13a 2 1 800] ------- [1:0 0:0 30 2] [16 0] 1 0
f 31.429521050 _2_ RTR  --- 38 ack 40 [13a 2 1 800] ------- [1:0 0:0 29 0] [16 0] 1 0
r 31.439546742 _1_ AGT  --- 34 tcp 1040 [13a 1 2 800] ------- [0:0 1:0 29 1] [17 0] 2 0
s 31.439546742 _1_ AGT  --- 41 ack 40 [0 0 0 0] ------- [1:0 0:0 32 0] [17 0] 0 0
r 31.439546742 _1_ RTR  --- 41 ack 40 [0 0 0 0] ------- [1:0 0:0 32 0] [17 0] 0 0
s 31.439546742 _1_ RTR  --- 41 ack 40 [0 0 0 0] ------- [1:0 0:0 30 2] [17 0] 0 0
r 31.441392435 _2_ RTR  --- 41 ack 40 [13a 2 1 800] ------- [1:0 0:0 30 2] [17 0] 1 0
f 31.441392435 _2_ RTR  --- 41 ack 40 [13a 2 1 800] ------- [1:0 0:0 29 0] [17 0] 1 0
r 31.451288967 _2_ RTR  --- 39 tcp 1040 [13a 2 0 800] ------- [0:0 1:0 30 2] [19 0] 1 0
f 31.451288967 _2_ RTR  --- 39 tcp 1040 [13a 2 0 800] ------- [0:0 1:0 29 1] [19 0] 1 0
r 31.461115572 _2_ RTR  --- 40 tcp 1040 [13a 2 0 800] ------- [0:0 1:0 30 2] [20 0] 1 0
f 31.461115572 _2_ RTR  --- 40 tcp 1040 [13a 2 0 800] ------- [0:0 1:0 29 1] [20 0] 1 0
r 31.471141264 _1_ AGT  --- 37 tcp 1040 [13a 1 2 800] ------- [0:0 1:0 29 1] [18 0] 2 0
s 31.471141264 _1_ AGT  --- 42 ack 40 [0 0 0 0] ------- [1:0 0:0 32 0] [18 0] 0 0
r 31.471141264 _1_ RTR  --- 42 ack 40 [0 0 0 0] ------- [1:0 0:0 32 0] [18 0] 0 0
s 31.471141264 _1_ RTR  --- 42 ack 40 [0 0 0 0] ------- [1:0 0:0 30 2] [18 0] 0 0
r 31.473486955 _2_ RTR  --- 42 ack 40 [13a 2 1 800] ------- [1:0 0:0 30 2] [18 0] 1 0
f 31.473486955 _2_ RTR  --- 42 ack 40 [13a 2 1 800] ------- [1:0 0:0 29 0] [18 0] 1 0
r 31.475412909 _0_ AGT  --- 38 ack 40 [13a 0 2 800] ------- [1:0 0:0 29 0] [16 0] 2 0
s 31.475412909 _0_ AGT  --- 43 tcp 1040 [0 0 0 0] ------- [0:0 1:0 32 0] [21 0] 0 0
r 31.475412909 _0_ RTR  --- 43 tcp 1040 [0 0 0 0] ------- [0:0 1:0 32 0] [21 0] 0 0
s 31.475412909 _0_ RTR  --- 43 tcp 1040 [0 0 0 0] ------- [0:0 1:0 30 2] [21 0] 0 0
r 31.485258862 _2_ RTR  --- 43 tcp 1040 [13a 2 0 800] ------- [0:0 1:0 30 2] [21 0] 1 0
f 31.485258862 _2_ RTR  --- 43 tcp 1040 [13a 2 0 800] ------- [0:0 1:0 29 1] [21 0] 1 0
r 31.487104816 _0_ AGT  --- 41 ack 40 [13a 0 2 800] ------- [1:0 0:0 29 0] [17 0] 2 0
s 31.487104816 _0_ AGT  --- 44 tcp 1040 [0 0 0 0] ------- [0:0 1:0 32 0] [22 0] 0 0
r 31.487104816 _0_ RTR  --- 44 tcp 1040 [0 0 0 0] ------- [0:0 1:0 32 0] [22 0] 0 0
s 31.487104816 _0_ AGT  --- 45 tcp 1040 [0 0 0 0] ------- [0:0 1:0 32 0] [23 0] 0 0
r 31.487104816 _0_ RTR  --- 45 tcp 1040 [0 0 0 0] ------- [0:0 1:0 32 0] [23 0] 0 0
s 31.487104816 _0_ RTR  --- 44 tcp 1040 [0 0 0 0] ------- [0:0 1:0 30 2] [22 0] 0 0
s 31.487104816 _0_ RTR  --- 45 tcp 1040 [0 0 0 0] ------- [0:0 1:0 30 2] [23 0] 0 0
r 31.496990769 _2_ RTR  --- 44 tcp 1040 [13a 2 0 800] ------- [0:0 1:0 30 2] [22 0] 1 0
f 31.496990769 _2_ RTR  --- 44 tcp 1040 [13a 2 0 800] ------- [0:0 1:0 29 1] [22 0] 1 0
r 31.506837373 _2_ RTR  --- 45 tcp 1040 [13a 2 0 800] ------- [0:0 1:0 30 2] [23 0] 1 0
f 31.506837373 _2_ RTR  --- 45 tcp 1040 [13a 2 0 800] ------- [0:0 1:0 29 1] [23 0] 1 0
r 31.516863063 _1_ AGT  --- 39 tcp 1040 [13a 1 2 800] ------- [0:0 1:0 29 1] [19 0] 2 0
s 31.516863063 _1_ AGT  --- 46 ack 40 [0 0 0 0] ------- [1:0 0:0 32 0] [19 0] 0 0
r 31.516863063 _1_ RTR  --- 46 ack 40 [0 0 0 0] ------- [1:0 0:0 32 0] [19 0] 0 0
s 31.516863063 _1_ RTR  --- 46 ack 40 [0 0 0 0] ------- [1:0 0:0 30 2] [19 0] 0 0
r 31.518888752 _2_ RTR  --- 46 ack 40 [13a 2 1 800] ------- [1:0 0:0 30 2] [19 0] 1 0
f 31.518888752 _2_ RTR  --- 46 ack 40 [13a 2 1 800] ------- [1:0 0:0 29 0] [19 0] 1 0
r 31.528914441 _1_ AGT  --- 40 tcp 1040 [13a 1 2 800] ------- [0:0 1:0 29 1] [20 0] 2 0
s 31.528914441 _1_ AGT  --- 47 ack 40 [0 0 0 0] ------- [1:0 0:0 32 0] [20 0] 0 0
r 31.528914441 _1_ RTR  --- 47 ack 40 [0 0 0 0] ------- [1:0 0:0 32 0] [20 0] 0 0
s 31.528914441 _1_ RTR  --- 47 ack 40 [0 0 0 0] ------- [1:0 0:0 30 2] [20 0] 0 0
r 31.531000130 _2_ RTR  --- 47 ack 40 [13a 2 1 800] ------- [1:0 0:0 30 2] [20 0] 1 0
f 31.531000130 _2_ RTR  --- 47 ack 40 [13a 2 1 800] ------- [1:0 0:0 29 0] [20 0] 1 0
r 31.532966082 _0_ AGT  --- 42 ack 40 [13a 0 2 800] ------- [1:0 0:0 29 0] [18 0] 2 0
s 31.532966082 _0_ AGT  --- 48 tcp 1040 [0 0 0 0] ------- [0:0 1:0 32 0] [24 0] 0 0
r 31.532966082 _0_ RTR  --- 48 tcp 1040 [0 0 0 0] ------- [0:0 1:0 32 0] [24 0] 0 0
s 31.532966082 _0_ RTR  --- 48 tcp 1040 [0 0 0 0] ------- [0:0 1:0 30 2] [24 0] 0 0
r 31.542972422 _1_ AGT  --- 43 tcp 1040 [13a 1 2 800] ------- [0:0 1:0 29 1] [21 0] 2 0
s 31.542972422 _1_ AGT  --- 49 ack 40 [0 0 0 0] ------- [1:0 0:0 32 0] [21 0] 0 0
r 31.542972422 _1_ RTR  --- 49 ack 40 [0 0 0 0] ------- [1:0 0:0 32 0] [21 0] 0 0
s 31.542972422 _1_ RTR  --- 49 ack 40 [0 0 0 0] ------- [1:0 0:0 30 2] [21 0] 0 0
r 31.545158110 _2_ RTR  --- 49 ack 40 [13a 2 1 800] ------- [1:0 0:0 30 2] [21 0] 1 0
f 31.545158110 _2_ RTR  --- 49 ack 40 [13a 2 1 800] ------- [1:0 0:0 29 0] [21 0] 1 0
r 31.555174638 _2_ RTR  --- 48 tcp 1040 [13a 2 0 800] ------- [0:0 1:0 30 2] [24 0] 1 0
f 31.555174638 _2_ RTR  --- 48 tcp 1040 [13a 2 0 800] ------- [0:0 1:0 29 1] [24 0] 1 0
r 31.565020326 _1_ AGT  --- 44 tcp 1040 [13a 1 2 800] ------- [0:0 1:0 29 1] [22 0] 2 0
s 31.565020326 _1_ AGT  --- 50 ack 40 [0 0 0 0] ------- [1:0 0:0 32 0] [22 0] 0 0
r 31.565020326 _1_ RTR  --- 50 ack 40 [0 0 0 0] ------- [1:0 0:0 32 0] [22 0] 0 0
s 31.565020326 _1_ RTR  --- 50 ack 40 [0 0 0 0] ------- [1:0 0:0 30 2] [22 0] 0 0
r 31.574846575 _1_ AGT  --- 45 tcp 1040 [13a 1 2 800] ------- [0:0 1:0 29 1] [23 0] 2 0
s 31.574846575 _1_ AGT  --- 51 ack 40 [0 0 0 0] ------- [1:0 0:0 32 0] [23 0] 0 0
r 31.574846575 _1_ RTR  --- 51 ack 40 [0 0 0 0] ------- [1:0 0:0 32 0] [23 0] 0 0
s 31.574846575 _1_ RTR  --- 51 ack 40 [0 0 0 0] ------- [1:0 0:0 30 2] [23 0] 0 0
r 31.576773089 _0_ AGT  --- 46 ack 40 [13a 0 2 800] ------- [1:0 0:0 29 0] [19 0] 2 0
s 31.576773089 _0_ AGT  --- 52 tcp 1040 [0 0 0 0] ------- [0:0 1:0 32 0] [25 0] 0 0
r 31.576773089 _0_ RTR  --- 52 tcp 1040 [0 0 0 0] ------- [0:0 1:0 32 0] [25 0] 0 0
s 31.576773089 _0_ RTR  --- 52 tcp 1040 [0 0 0 0] ------- [0:0 1:0 30 2] [25 0] 0 0
r 31.578599691 _0_ AGT  --- 47 ack 40 [13a 0 2 800] ------- [1:0 0:0 29 0] [20 0] 2 0
s 31.578599691 _0_ AGT  --- 53 tcp 1040 [0 0 0 0] ------- [0:0 1:0 32 0] [26 0] 0 0
r 31.578599691 _0_ RTR  --- 53 tcp 1040 [0 0 0 0] ------- [0:0 1:0 32 0] [26 0] 0 0
s 31.578599691 _0_ RTR  --- 53 tcp 1040 [0 0 0 0] ------- [0:0 1:0 30 2] [26 0] 0 0
r 31.588565643 _2_ RTR  --- 52 tcp 1040 [13a 2 0 800] ------- [0:0 1:0 30 2] [25 0] 1 0
f 31.588565643 _2_ RTR  --- 52 tcp 1040 [13a 2 0 800] ------- [0:0 1:0 29 1] [25 0] 1 0
r 31.590581817 _2_ RTR  --- 50 ack 40 [13a 2 1 800] ------- [1:0 0:0 30 2] [22 0] 1 0
f 31.590581817 _2_ RTR  --- 50 ack 40 [13a 2 1 800] ------- [1:0 0:0 29 0] [22 0] 1 0
r 31.592647768 _0_ AGT  --- 49 ack 40 [13a 0 2 800] ------- [1:0 0:0 29 0] [21 0] 2 0
s 31.592647768 _0_ AGT  --- 54 tcp 1040 [0 0 0 0] ------- [0:0 1:0 32 0] [27 0] 0 0
r 31.592647768 _0_ RTR  --- 54 tcp 1040 [0 0 0 0] ------- [0:0 1:0 32 0] [27 0] 0 0
s 31.592647768 _0_ RTR  --- 54 tcp 1040 [0 0 0 0] ------- [0:0 1:0 30 2] [27 0] 0 0
r 31.602673719 _2_ RTR  --- 53 tcp 1040 [13a 2 0 800] ------- [0:0 1:0 30 2] [26 0] 1 0
f 31.602673719 _2_ RTR  --- 53 tcp 1040 [13a 2 0 800] ------- [0:0 1:0 29 1] [26 0] 1 0
r 31.612720320 _2_ RTR  --- 54 tcp 1040 [13a 2 0 800] ------- [0:0 1:0 30 2] [27 0] 1 0
f 31.612720320 _2_ RTR  --- 54 tcp 1040 [13a 2 0 800] ------- [0:0 1:0 29 1] [27 0] 1 0
r 31.622726005 _1_ AGT  --- 48 tcp 1040 [13a 1 2 800] ------- [0:0 1:0 29 1] [24 0] 2 0
s 31.622726005 _1_ AGT  --- 55 ack 40 [0 0 0 0] ------- [1:0 0:0 32 0] [24 0] 0 0
r 31.622726005 _1_ RTR  --- 55 ack 40 [0 0 0 0] ------- [1:0 0:0 32 0] [24 0] 0 0
s 31.622726005 _1_ RTR  --- 55 ack 40 [0 0 0 0] ------- [1:0 0:0 30 2] [24 0] 0 0
r 31.624631690 _2_ RTR  --- 51 ack 40 [13a 2 1 800] ------- [1:0 0:0 30 2] [23 0] 1 0
f 31.624631690 _2_ RTR  --- 51 ack 40 [13a 2 1 800] ------- [1:0 0:0 29 0] [23 0] 1 0
r 31.634537375 _1_ AGT  --- 52 tcp 1040 [13a 1 2 800] ------- [0:0 1:0 29 1] [25 0] 2 0
s 31.634537375 _1_ AGT  --- 56 ack 40 [0 0 0 0] ------- [1:0 0:0 32 0] [25 0] 0 0
r 31.634537375 _1_ RTR  --- 56 ack 40 [0 0 0 0] ------- [1:0 0:0 32 0] [25 0] 0 0
s 31.634537375 _1_ RTR  --- 56 ack 40 [0 0 0 0] ------- [1:0 0:0 30 2] [25 0] 0 0
r 31.636543059 _2_ RTR  --- 55 ack 40 [13a 2 1 800] ------- [1:0 0:0 30 2] [24 0] 1 0
f 31.636543059 _2_ RTR  --- 55 ack 40 [13a 2 1 800] ------- [1:0 0:0 29 0] [24 0] 1 0
r 31.638469305 _2_ RTR  --- 56 ack 40 [13a 2 1 800] ------- [1:0 0:0 30 2] [25 0] 1 0
f 31.638469305 _2_ RTR  --- 56 ack 40 [13a 2 1 800] ------- [1:0 0:0 29 0] [25 0] 1 0
r 31.640555255 _0_ AGT  --- 50 ack 40 [13a 0 2 800] ------- [1:0 0:0 29 0] [22 0] 2 0
s 31.640555255 _0_ AGT  --- 57 tcp 1040 [0 0 0 0] ------- [0:0 1:0 32 0] [28 0] 0 0
r 31.640555255 _0_ RTR  --- 57 tcp 1040 [0 0 0 0] ------- [0:0 1:0 32 0] [28 0] 0 0
s 31.640555255 _0_ RTR  --- 57 tcp 1040 [0 0 0 0] ------- [0:0 1:0 30 2] [28 0] 0 0
r 31.650381589 _1_ AGT  --- 53 tcp 1040 [13a 1 2 800] ------- [0:0 1:0 29 1] [26 0] 2 0
s 31.650381589 _1_ AGT  --- 58 ack 40 [0 0 0 0] ------- [1:0 0:0 32 0] [26 0] 0 0
r 31.650381589 _1_ RTR  --- 58 ack 40 [0 0 0 0] ------- [1:0 0:0 32 0] [26 0] 0 0
s 31.650381589 _1_ RTR  --- 58 ack 40 [0 0 0 0] ------- [1:0 0:0 30 2] [26 0] 0 0
r 31.652587273 _2_ RTR  --- 58 ack 40 [13a 2 1 800] ------- [1:0 0:0 30 2] [26 0] 1 0
f 31.652587273 _2_ RTR  --- 58 ack 40 [13a 2 1 800] ------- [1:0 0:0 29 0] [26 0] 1 0